
     Program PWSCF v.7.0 starts on 24Jun2022 at 23:43:15 

     This program is part of the open-source Quantum ESPRESSO suite
     for quantum simulation of materials; please cite
         "P. Giannozzi et al., J. Phys.:Condens. Matter 21 395502 (2009);
         "P. Giannozzi et al., J. Phys.:Condens. Matter 29 465901 (2017);
         "P. Giannozzi et al., J. Chem. Phys. 152 154105 (2020);
          URL http://www.quantum-espresso.org", 
     in publications or presentations arising from this work. More details at
     http://www.quantum-espresso.org/quote

     Parallel version (MPI & OpenMP), running on      28 processor cores
     Number of MPI processes:                28
     Threads/MPI process:                     1

     MPI processes distributed on     1 nodes
     K-points division:     npool     =       7
     R & G space division:  proc/nbgrp/npool/nimage =       4
     60161 MiB available memory on the printing compute node when the environment starts
 
     Waiting for input...
     Reading input from standard input

     Current dimensions of program PWSCF are:
     Max number of different atomic species (ntypx) = 10
     Max number of k-points (npk) =  40000
     Max angular momentum in pseudopotentials (lmaxx) =  4
     Message from routine iosys:
     wrong startingpot: use default (2)

     Atomic positions and unit cell read from directory:
     ./graphene.save/
     Atomic positions from file used, from input discarded
 
     file C.pbe-n-kjpaw_psl.1.0.0.UPF: wavefunction(s)  2S 2P renormalized

     Subspace diagonalization in iterative solution of the eigenvalue problem:
     one sub-group per band group will be used
     scalapack distributed-memory algorithm (size of sub-group:  2*  2 procs)

 
     Parallelization info
     --------------------
     sticks:   dense  smooth     PW     G-vecs:    dense   smooth      PW
     Min         180     118     49                23682    12854    3479
     Max         181     119     50                23699    12877    3500
     Sum         721     475    199                94757    51479   13971
 
     Using Slab Decomposition
 


     bravais-lattice index     =            4
     lattice parameter (alat)  =       4.6623  a.u.
     unit-cell volume          =     533.6125 (a.u.)^3
     number of atoms/cell      =            2
     number of atomic types    =            1
     number of electrons       =         8.00
     number of Kohn-Sham states=           28
     kinetic-energy cutoff     =      80.0000  Ry
     charge density cutoff     =     480.0000  Ry
     Exchange-correlation= SLA  PW   PBX  PBC
                           (   1   4   3   4   0   0   0)

     celldm(1)=   4.662326  celldm(2)=   0.000000  celldm(3)=   6.079775
     celldm(4)=   0.000000  celldm(5)=   0.000000  celldm(6)=   0.000000

     crystal axes: (cart. coord. in units of alat)
               a(1) = (   1.000000   0.000000   0.000000 )  
               a(2) = (  -0.500000   0.866025   0.000000 )  
               a(3) = (   0.000000   0.000000   6.079775 )  

     reciprocal axes: (cart. coord. in units 2 pi/alat)
               b(1) = (  1.000000  0.577350  0.000000 )  
               b(2) = (  0.000000  1.154701  0.000000 )  
               b(3) = (  0.000000  0.000000  0.164480 )  

Write cell and positions for Wanner90.x
begin unit_cell_cart
Bohr
        4.6623259   0.0000000   0.0000000
       -2.3311629   4.0376926   0.0000000
        0.0000000   0.0000000  28.3458918
end unit_cell_cart

begin atoms_cart
Bohr
        C          -0.0000000   2.6917951  14.1729459
        C           2.3311629   1.3458975  14.1729459
end atoms_cart

     PseudoPot. # 1 for C  read from file:
     ./pseudo/C.pbe-n-kjpaw_psl.1.0.0.UPF
     MD5 check sum: 6fec8efd722f5d988670a8dc528584a2
     Pseudo is Projector augmented-wave + core cor, Zval =  4.0
     Generated using "atomic" code by A. Dal Corso  v.5.1.2
     Shape of augmentation charge: PSQ
     Using radial grid of 1073 points,  4 beta functions with: 
                l(1) =   0
                l(2) =   0
                l(3) =   1
                l(4) =   1
     Q(r) pseudized with 0 coefficients 


     atomic species   valence    mass     pseudopotential
        C              4.00    12.01070     C ( 1.00)

     24 Sym. Ops., with inversion, found


                                    s                        frac. trans.

      isym =  1     identity                                     

 cryst.   s( 1) = (     1          0          0      )
                  (     0          1          0      )
                  (     0          0          1      )

 cart.    s( 1) = (  1.0000000  0.0000000  0.0000000 )
                  (  0.0000000  1.0000000  0.0000000 )
                  (  0.0000000  0.0000000  1.0000000 )


      isym =  2     180 deg rotation - cart. axis [0,0,1]        

 cryst.   s( 2) = (    -1          0          0      )
                  (     0         -1          0      )
                  (     0          0          1      )

 cart.    s( 2) = ( -1.0000000  0.0000000  0.0000000 )
                  (  0.0000000 -1.0000000  0.0000000 )
                  (  0.0000000  0.0000000  1.0000000 )


      isym =  3     180 deg rotation - cart. axis [0,1,0]        

 cryst.   s( 3) = (    -1          0          0      )
                  (     1          1          0      )
                  (     0          0         -1      )

 cart.    s( 3) = ( -1.0000000  0.0000000  0.0000000 )
                  (  0.0000000  1.0000000  0.0000000 )
                  (  0.0000000  0.0000000 -1.0000000 )


      isym =  4     180 deg rotation - cart. axis [1,0,0]        

 cryst.   s( 4) = (     1          0          0      )
                  (    -1         -1          0      )
                  (     0          0         -1      )

 cart.    s( 4) = (  1.0000000  0.0000000  0.0000000 )
                  (  0.0000000 -1.0000000  0.0000000 )
                  (  0.0000000  0.0000000 -1.0000000 )


      isym =  5      60 deg rotation - cryst. axis [0,0,1]       

 cryst.   s( 5) = (     1          1          0      )
                  (    -1          0          0      )
                  (     0          0          1      )

 cart.    s( 5) = (  0.5000000 -0.8660254  0.0000000 )
                  (  0.8660254  0.5000000  0.0000000 )
                  (  0.0000000  0.0000000  1.0000000 )


      isym =  6      60 deg rotation - cryst. axis [0,0,-1]      

 cryst.   s( 6) = (     0         -1          0      )
                  (     1          1          0      )
                  (     0          0          1      )

 cart.    s( 6) = (  0.5000000  0.8660254  0.0000000 )
                  ( -0.8660254  0.5000000  0.0000000 )
                  (  0.0000000  0.0000000  1.0000000 )


      isym =  7     120 deg rotation - cryst. axis [0,0,1]       

 cryst.   s( 7) = (     0          1          0      )
                  (    -1         -1          0      )
                  (     0          0          1      )

 cart.    s( 7) = ( -0.5000000 -0.8660254  0.0000000 )
                  (  0.8660254 -0.5000000  0.0000000 )
                  (  0.0000000  0.0000000  1.0000000 )


      isym =  8     120 deg rotation - cryst. axis [0,0,-1]      

 cryst.   s( 8) = (    -1         -1          0      )
                  (     1          0          0      )
                  (     0          0          1      )

 cart.    s( 8) = ( -0.5000000  0.8660254  0.0000000 )
                  ( -0.8660254 -0.5000000  0.0000000 )
                  (  0.0000000  0.0000000  1.0000000 )


      isym =  9     180 deg rotation - cryst. axis [1,-1,0]      

 cryst.   s( 9) = (     0         -1          0      )
                  (    -1          0          0      )
                  (     0          0         -1      )

 cart.    s( 9) = (  0.5000000 -0.8660254  0.0000000 )
                  ( -0.8660254 -0.5000000  0.0000000 )
                  (  0.0000000  0.0000000 -1.0000000 )


      isym = 10     180 deg rotation - cryst. axis [2,1,0]       

 cryst.   s(10) = (     1          1          0      )
                  (     0         -1          0      )
                  (     0          0         -1      )

 cart.    s(10) = (  0.5000000  0.8660254  0.0000000 )
                  (  0.8660254 -0.5000000  0.0000000 )
                  (  0.0000000  0.0000000 -1.0000000 )


      isym = 11     180 deg rotation - cryst. axis [0,1,0]       

 cryst.   s(11) = (    -1         -1          0      )
                  (     0          1          0      )
                  (     0          0         -1      )

 cart.    s(11) = ( -0.5000000 -0.8660254  0.0000000 )
                  ( -0.8660254  0.5000000  0.0000000 )
                  (  0.0000000  0.0000000 -1.0000000 )


      isym = 12     180 deg rotation - cryst. axis [1,1,0]       

 cryst.   s(12) = (     0          1          0      )
                  (     1          0          0      )
                  (     0          0         -1      )

 cart.    s(12) = ( -0.5000000  0.8660254  0.0000000 )
                  (  0.8660254  0.5000000  0.0000000 )
                  (  0.0000000  0.0000000 -1.0000000 )


      isym = 13     inversion                                    

 cryst.   s(13) = (    -1          0          0      )
                  (     0         -1          0      )
                  (     0          0         -1      )

 cart.    s(13) = ( -1.0000000  0.0000000  0.0000000 )
                  (  0.0000000 -1.0000000  0.0000000 )
                  (  0.0000000  0.0000000 -1.0000000 )


      isym = 14     inv. 180 deg rotation - cart. axis [0,0,1]   

 cryst.   s(14) = (     1          0          0      )
                  (     0          1          0      )
                  (     0          0         -1      )

 cart.    s(14) = (  1.0000000  0.0000000  0.0000000 )
                  (  0.0000000  1.0000000  0.0000000 )
                  (  0.0000000  0.0000000 -1.0000000 )


      isym = 15     inv. 180 deg rotation - cart. axis [0,1,0]   

 cryst.   s(15) = (     1          0          0      )
                  (    -1         -1          0      )
                  (     0          0          1      )

 cart.    s(15) = (  1.0000000  0.0000000  0.0000000 )
                  (  0.0000000 -1.0000000  0.0000000 )
                  (  0.0000000  0.0000000  1.0000000 )


      isym = 16     inv. 180 deg rotation - cart. axis [1,0,0]   

 cryst.   s(16) = (    -1          0          0      )
                  (     1          1          0      )
                  (     0          0          1      )

 cart.    s(16) = ( -1.0000000  0.0000000  0.0000000 )
                  (  0.0000000  1.0000000  0.0000000 )
                  (  0.0000000  0.0000000  1.0000000 )


      isym = 17     inv.  60 deg rotation - cryst. axis [0,0,1]  

 cryst.   s(17) = (    -1         -1          0      )
                  (     1          0          0      )
                  (     0          0         -1      )

 cart.    s(17) = ( -0.5000000  0.8660254  0.0000000 )
                  ( -0.8660254 -0.5000000  0.0000000 )
                  (  0.0000000  0.0000000 -1.0000000 )


      isym = 18     inv.  60 deg rotation - cryst. axis [0,0,-1] 

 cryst.   s(18) = (     0          1          0      )
                  (    -1         -1          0      )
                  (     0          0         -1      )

 cart.    s(18) = ( -0.5000000 -0.8660254  0.0000000 )
                  (  0.8660254 -0.5000000  0.0000000 )
                  (  0.0000000  0.0000000 -1.0000000 )


      isym = 19     inv. 120 deg rotation - cryst. axis [0,0,1]  

 cryst.   s(19) = (     0         -1          0      )
                  (     1          1          0      )
                  (     0          0         -1      )

 cart.    s(19) = (  0.5000000  0.8660254  0.0000000 )
                  ( -0.8660254  0.5000000  0.0000000 )
                  (  0.0000000  0.0000000 -1.0000000 )


      isym = 20     inv. 120 deg rotation - cryst. axis [0,0,-1] 

 cryst.   s(20) = (     1          1          0      )
                  (    -1          0          0      )
                  (     0          0         -1      )

 cart.    s(20) = (  0.5000000 -0.8660254  0.0000000 )
                  (  0.8660254  0.5000000  0.0000000 )
                  (  0.0000000  0.0000000 -1.0000000 )


      isym = 21     inv. 180 deg rotation - cryst. axis [1,-1,0] 

 cryst.   s(21) = (     0          1          0      )
                  (     1          0          0      )
                  (     0          0          1      )

 cart.    s(21) = ( -0.5000000  0.8660254  0.0000000 )
                  (  0.8660254  0.5000000  0.0000000 )
                  (  0.0000000  0.0000000  1.0000000 )


      isym = 22     inv. 180 deg rotation - cryst. axis [2,1,0]  

 cryst.   s(22) = (    -1         -1          0      )
                  (     0          1          0      )
                  (     0          0          1      )

 cart.    s(22) = ( -0.5000000 -0.8660254  0.0000000 )
                  ( -0.8660254  0.5000000  0.0000000 )
                  (  0.0000000  0.0000000  1.0000000 )


      isym = 23     inv. 180 deg rotation - cryst. axis [0,1,0]  

 cryst.   s(23) = (     1          1          0      )
                  (     0         -1          0      )
                  (     0          0          1      )

 cart.    s(23) = (  0.5000000  0.8660254  0.0000000 )
                  (  0.8660254 -0.5000000  0.0000000 )
                  (  0.0000000  0.0000000  1.0000000 )


      isym = 24     inv. 180 deg rotation - cryst. axis [1,1,0]  

 cryst.   s(24) = (     0         -1          0      )
                  (    -1          0          0      )
                  (     0          0          1      )

 cart.    s(24) = (  0.5000000 -0.8660254  0.0000000 )
                  ( -0.8660254 -0.5000000  0.0000000 )
                  (  0.0000000  0.0000000  1.0000000 )


     point group D_6h(6/mmm)
     there are 12 classes
     the character table:

       E     2C6   2C3   C2    3C2'  3C2'' i     2S3   2S6   s_h   3s_d  3s_v 
A_1g   1.00  1.00  1.00  1.00  1.00  1.00  1.00  1.00  1.00  1.00  1.00  1.00
A_2g   1.00  1.00  1.00  1.00 -1.00 -1.00  1.00  1.00  1.00  1.00 -1.00 -1.00
B_1g   1.00 -1.00  1.00 -1.00  1.00 -1.00  1.00 -1.00  1.00 -1.00  1.00 -1.00
B_2g   1.00 -1.00  1.00 -1.00 -1.00  1.00  1.00 -1.00  1.00 -1.00 -1.00  1.00
E_1g   2.00  1.00 -1.00 -2.00  0.00  0.00  2.00  1.00 -1.00 -2.00  0.00  0.00
E_2g   2.00 -1.00 -1.00  2.00  0.00  0.00  2.00 -1.00 -1.00  2.00  0.00  0.00
A_1u   1.00  1.00  1.00  1.00  1.00  1.00 -1.00 -1.00 -1.00 -1.00 -1.00 -1.00
A_2u   1.00  1.00  1.00  1.00 -1.00 -1.00 -1.00 -1.00 -1.00 -1.00  1.00  1.00
B_1u   1.00 -1.00  1.00 -1.00  1.00 -1.00 -1.00  1.00 -1.00  1.00 -1.00  1.00
B_2u   1.00 -1.00  1.00 -1.00 -1.00  1.00 -1.00  1.00 -1.00  1.00  1.00 -1.00
E_1u   2.00  1.00 -1.00 -2.00  0.00  0.00 -2.00 -1.00  1.00  2.00  0.00  0.00
E_2u   2.00 -1.00 -1.00  2.00  0.00  0.00 -2.00  1.00  1.00 -2.00  0.00  0.00

     the symmetry operations in each class and the name of the first element:

     E        1
          identity                                               
     2C6      5    6
           60 deg rotation - cryst. axis [0,0,1]                 
     2C3      7    8
          120 deg rotation - cryst. axis [0,0,1]                 
     C2       2
          180 deg rotation - cart. axis [0,0,1]                  
     3C2'     4   12   11
          180 deg rotation - cart. axis [1,0,0]                  
     3C2''    3    9   10
          180 deg rotation - cart. axis [0,1,0]                  
     i       13
          inversion                                              
     2S3     17   18
          inv.  60 deg rotation - cryst. axis [0,0,1]            
     2S6     19   20
          inv. 120 deg rotation - cryst. axis [0,0,1]            
     s_h     14
          inv. 180 deg rotation - cart. axis [0,0,1]             
     3s_d    16   24   23
          inv. 180 deg rotation - cart. axis [1,0,0]             
     3s_v    15   21   22
          inv. 180 deg rotation - cart. axis [0,1,0]             

   Cartesian axes

     site n.     atom                  positions (alat units)
         1           C   tau(   1) = (  -0.0000000   0.5773503   3.0398875  )
         2           C   tau(   2) = (   0.5000000   0.2886751   3.0398875  )

   Crystallographic axes

     site n.     atom                  positions (cryst. coord.)
         1           C   tau(   1) = (  0.3333333  0.6666667  0.5000000  )
         2           C   tau(   2) = (  0.6666667  0.3333333  0.5000000  )

     number of k points=  1296  Methfessel-Paxton smearing, width (Ry)=  0.0100
                       cart. coord. in units 2pi/alat
        k(    1) = (   0.0000000   0.0000000   0.0000000), wk =   0.0015432
        k(    2) = (   0.0000000   0.0320750   0.0000000), wk =   0.0015432
        k(    3) = (   0.0000000   0.0641500   0.0000000), wk =   0.0015432
        k(    4) = (   0.0000000   0.0962250   0.0000000), wk =   0.0015432
        k(    5) = (   0.0000000   0.1283001   0.0000000), wk =   0.0015432
        k(    6) = (   0.0000000   0.1603751   0.0000000), wk =   0.0015432
        k(    7) = (   0.0000000   0.1924501   0.0000000), wk =   0.0015432
        k(    8) = (   0.0000000   0.2245251   0.0000000), wk =   0.0015432
        k(    9) = (   0.0000000   0.2566001   0.0000000), wk =   0.0015432
        k(   10) = (   0.0000000   0.2886751   0.0000000), wk =   0.0015432
        k(   11) = (   0.0000000   0.3207502   0.0000000), wk =   0.0015432
        k(   12) = (   0.0000000   0.3528252   0.0000000), wk =   0.0015432
        k(   13) = (   0.0000000   0.3849002   0.0000000), wk =   0.0015432
        k(   14) = (   0.0000000   0.4169752   0.0000000), wk =   0.0015432
        k(   15) = (   0.0000000   0.4490502   0.0000000), wk =   0.0015432
        k(   16) = (   0.0000000   0.4811252   0.0000000), wk =   0.0015432
        k(   17) = (   0.0000000   0.5132002   0.0000000), wk =   0.0015432
        k(   18) = (   0.0000000   0.5452753   0.0000000), wk =   0.0015432
        k(   19) = (   0.0000000   0.5773503   0.0000000), wk =   0.0015432
        k(   20) = (   0.0000000   0.6094253   0.0000000), wk =   0.0015432
        k(   21) = (   0.0000000   0.6415003   0.0000000), wk =   0.0015432
        k(   22) = (   0.0000000   0.6735753   0.0000000), wk =   0.0015432
        k(   23) = (   0.0000000   0.7056503   0.0000000), wk =   0.0015432
        k(   24) = (   0.0000000   0.7377253   0.0000000), wk =   0.0015432
        k(   25) = (   0.0000000   0.7698004   0.0000000), wk =   0.0015432
        k(   26) = (   0.0000000   0.8018754   0.0000000), wk =   0.0015432
        k(   27) = (   0.0000000   0.8339504   0.0000000), wk =   0.0015432
        k(   28) = (   0.0000000   0.8660254   0.0000000), wk =   0.0015432
        k(   29) = (   0.0000000   0.8981004   0.0000000), wk =   0.0015432
        k(   30) = (   0.0000000   0.9301754   0.0000000), wk =   0.0015432
        k(   31) = (   0.0000000   0.9622504   0.0000000), wk =   0.0015432
        k(   32) = (   0.0000000   0.9943255   0.0000000), wk =   0.0015432
        k(   33) = (   0.0000000   1.0264005   0.0000000), wk =   0.0015432
        k(   34) = (   0.0000000   1.0584755   0.0000000), wk =   0.0015432
        k(   35) = (   0.0000000   1.0905505   0.0000000), wk =   0.0015432
        k(   36) = (   0.0000000   1.1226255   0.0000000), wk =   0.0015432
        k(   37) = (   0.0277778   0.0160375   0.0000000), wk =   0.0015432
        k(   38) = (   0.0277778   0.0481125   0.0000000), wk =   0.0015432
        k(   39) = (   0.0277778   0.0801875   0.0000000), wk =   0.0015432
        k(   40) = (   0.0277778   0.1122625   0.0000000), wk =   0.0015432
        k(   41) = (   0.0277778   0.1443376   0.0000000), wk =   0.0015432
        k(   42) = (   0.0277778   0.1764126   0.0000000), wk =   0.0015432
        k(   43) = (   0.0277778   0.2084876   0.0000000), wk =   0.0015432
        k(   44) = (   0.0277778   0.2405626   0.0000000), wk =   0.0015432
        k(   45) = (   0.0277778   0.2726376   0.0000000), wk =   0.0015432
        k(   46) = (   0.0277778   0.3047126   0.0000000), wk =   0.0015432
        k(   47) = (   0.0277778   0.3367877   0.0000000), wk =   0.0015432
        k(   48) = (   0.0277778   0.3688627   0.0000000), wk =   0.0015432
        k(   49) = (   0.0277778   0.4009377   0.0000000), wk =   0.0015432
        k(   50) = (   0.0277778   0.4330127   0.0000000), wk =   0.0015432
        k(   51) = (   0.0277778   0.4650877   0.0000000), wk =   0.0015432
        k(   52) = (   0.0277778   0.4971627   0.0000000), wk =   0.0015432
        k(   53) = (   0.0277778   0.5292377   0.0000000), wk =   0.0015432
        k(   54) = (   0.0277778   0.5613128   0.0000000), wk =   0.0015432
        k(   55) = (   0.0277778   0.5933878   0.0000000), wk =   0.0015432
        k(   56) = (   0.0277778   0.6254628   0.0000000), wk =   0.0015432
        k(   57) = (   0.0277778   0.6575378   0.0000000), wk =   0.0015432
        k(   58) = (   0.0277778   0.6896128   0.0000000), wk =   0.0015432
        k(   59) = (   0.0277778   0.7216878   0.0000000), wk =   0.0015432
        k(   60) = (   0.0277778   0.7537629   0.0000000), wk =   0.0015432
        k(   61) = (   0.0277778   0.7858379   0.0000000), wk =   0.0015432
        k(   62) = (   0.0277778   0.8179129   0.0000000), wk =   0.0015432
        k(   63) = (   0.0277778   0.8499879   0.0000000), wk =   0.0015432
        k(   64) = (   0.0277778   0.8820629   0.0000000), wk =   0.0015432
        k(   65) = (   0.0277778   0.9141379   0.0000000), wk =   0.0015432
        k(   66) = (   0.0277778   0.9462129   0.0000000), wk =   0.0015432
        k(   67) = (   0.0277778   0.9782880   0.0000000), wk =   0.0015432
        k(   68) = (   0.0277778   1.0103630   0.0000000), wk =   0.0015432
        k(   69) = (   0.0277778   1.0424380   0.0000000), wk =   0.0015432
        k(   70) = (   0.0277778   1.0745130   0.0000000), wk =   0.0015432
        k(   71) = (   0.0277778   1.1065880   0.0000000), wk =   0.0015432
        k(   72) = (   0.0277778   1.1386630   0.0000000), wk =   0.0015432
        k(   73) = (   0.0555556   0.0320750   0.0000000), wk =   0.0015432
        k(   74) = (   0.0555556   0.0641500   0.0000000), wk =   0.0015432
        k(   75) = (   0.0555556   0.0962251   0.0000000), wk =   0.0015432
        k(   76) = (   0.0555556   0.1283001   0.0000000), wk =   0.0015432
        k(   77) = (   0.0555556   0.1603751   0.0000000), wk =   0.0015432
        k(   78) = (   0.0555556   0.1924501   0.0000000), wk =   0.0015432
        k(   79) = (   0.0555556   0.2245251   0.0000000), wk =   0.0015432
        k(   80) = (   0.0555556   0.2566001   0.0000000), wk =   0.0015432
        k(   81) = (   0.0555556   0.2886751   0.0000000), wk =   0.0015432
        k(   82) = (   0.0555556   0.3207502   0.0000000), wk =   0.0015432
        k(   83) = (   0.0555556   0.3528252   0.0000000), wk =   0.0015432
        k(   84) = (   0.0555556   0.3849002   0.0000000), wk =   0.0015432
        k(   85) = (   0.0555556   0.4169752   0.0000000), wk =   0.0015432
        k(   86) = (   0.0555556   0.4490502   0.0000000), wk =   0.0015432
        k(   87) = (   0.0555556   0.4811252   0.0000000), wk =   0.0015432
        k(   88) = (   0.0555556   0.5132002   0.0000000), wk =   0.0015432
        k(   89) = (   0.0555556   0.5452753   0.0000000), wk =   0.0015432
        k(   90) = (   0.0555556   0.5773503   0.0000000), wk =   0.0015432
        k(   91) = (   0.0555556   0.6094253   0.0000000), wk =   0.0015432
        k(   92) = (   0.0555556   0.6415003   0.0000000), wk =   0.0015432
        k(   93) = (   0.0555556   0.6735753   0.0000000), wk =   0.0015432
        k(   94) = (   0.0555556   0.7056503   0.0000000), wk =   0.0015432
        k(   95) = (   0.0555556   0.7377253   0.0000000), wk =   0.0015432
        k(   96) = (   0.0555556   0.7698004   0.0000000), wk =   0.0015432
        k(   97) = (   0.0555556   0.8018754   0.0000000), wk =   0.0015432
        k(   98) = (   0.0555556   0.8339504   0.0000000), wk =   0.0015432
        k(   99) = (   0.0555556   0.8660254   0.0000000), wk =   0.0015432
        k(  100) = (   0.0555556   0.8981004   0.0000000), wk =   0.0015432
        k(  101) = (   0.0555556   0.9301754   0.0000000), wk =   0.0015432
        k(  102) = (   0.0555556   0.9622505   0.0000000), wk =   0.0015432
        k(  103) = (   0.0555556   0.9943255   0.0000000), wk =   0.0015432
        k(  104) = (   0.0555556   1.0264005   0.0000000), wk =   0.0015432
        k(  105) = (   0.0555556   1.0584755   0.0000000), wk =   0.0015432
        k(  106) = (   0.0555556   1.0905505   0.0000000), wk =   0.0015432
        k(  107) = (   0.0555556   1.1226255   0.0000000), wk =   0.0015432
        k(  108) = (   0.0555556   1.1547005   0.0000000), wk =   0.0015432
        k(  109) = (   0.0833333   0.0481125   0.0000000), wk =   0.0015432
        k(  110) = (   0.0833333   0.0801875   0.0000000), wk =   0.0015432
        k(  111) = (   0.0833333   0.1122626   0.0000000), wk =   0.0015432
        k(  112) = (   0.0833333   0.1443376   0.0000000), wk =   0.0015432
        k(  113) = (   0.0833333   0.1764126   0.0000000), wk =   0.0015432
        k(  114) = (   0.0833333   0.2084876   0.0000000), wk =   0.0015432
        k(  115) = (   0.0833333   0.2405626   0.0000000), wk =   0.0015432
        k(  116) = (   0.0833333   0.2726376   0.0000000), wk =   0.0015432
        k(  117) = (   0.0833333   0.3047126   0.0000000), wk =   0.0015432
        k(  118) = (   0.0833333   0.3367877   0.0000000), wk =   0.0015432
        k(  119) = (   0.0833333   0.3688627   0.0000000), wk =   0.0015432
        k(  120) = (   0.0833333   0.4009377   0.0000000), wk =   0.0015432
        k(  121) = (   0.0833333   0.4330127   0.0000000), wk =   0.0015432
        k(  122) = (   0.0833333   0.4650877   0.0000000), wk =   0.0015432
        k(  123) = (   0.0833333   0.4971627   0.0000000), wk =   0.0015432
        k(  124) = (   0.0833333   0.5292377   0.0000000), wk =   0.0015432
        k(  125) = (   0.0833333   0.5613128   0.0000000), wk =   0.0015432
        k(  126) = (   0.0833333   0.5933878   0.0000000), wk =   0.0015432
        k(  127) = (   0.0833333   0.6254628   0.0000000), wk =   0.0015432
        k(  128) = (   0.0833333   0.6575378   0.0000000), wk =   0.0015432
        k(  129) = (   0.0833333   0.6896128   0.0000000), wk =   0.0015432
        k(  130) = (   0.0833333   0.7216878   0.0000000), wk =   0.0015432
        k(  131) = (   0.0833333   0.7537628   0.0000000), wk =   0.0015432
        k(  132) = (   0.0833333   0.7858379   0.0000000), wk =   0.0015432
        k(  133) = (   0.0833333   0.8179129   0.0000000), wk =   0.0015432
        k(  134) = (   0.0833333   0.8499879   0.0000000), wk =   0.0015432
        k(  135) = (   0.0833333   0.8820629   0.0000000), wk =   0.0015432
        k(  136) = (   0.0833333   0.9141379   0.0000000), wk =   0.0015432
        k(  137) = (   0.0833333   0.9462129   0.0000000), wk =   0.0015432
        k(  138) = (   0.0833333   0.9782880   0.0000000), wk =   0.0015432
        k(  139) = (   0.0833333   1.0103630   0.0000000), wk =   0.0015432
        k(  140) = (   0.0833333   1.0424380   0.0000000), wk =   0.0015432
        k(  141) = (   0.0833333   1.0745130   0.0000000), wk =   0.0015432
        k(  142) = (   0.0833333   1.1065880   0.0000000), wk =   0.0015432
        k(  143) = (   0.0833333   1.1386630   0.0000000), wk =   0.0015432
        k(  144) = (   0.0833333   1.1707380   0.0000000), wk =   0.0015432
        k(  145) = (   0.1111111   0.0641500   0.0000000), wk =   0.0015432
        k(  146) = (   0.1111111   0.0962250   0.0000000), wk =   0.0015432
        k(  147) = (   0.1111111   0.1283001   0.0000000), wk =   0.0015432
        k(  148) = (   0.1111111   0.1603751   0.0000000), wk =   0.0015432
        k(  149) = (   0.1111111   0.1924501   0.0000000), wk =   0.0015432
        k(  150) = (   0.1111111   0.2245251   0.0000000), wk =   0.0015432
        k(  151) = (   0.1111111   0.2566001   0.0000000), wk =   0.0015432
        k(  152) = (   0.1111111   0.2886751   0.0000000), wk =   0.0015432
        k(  153) = (   0.1111111   0.3207501   0.0000000), wk =   0.0015432
        k(  154) = (   0.1111111   0.3528252   0.0000000), wk =   0.0015432
        k(  155) = (   0.1111111   0.3849002   0.0000000), wk =   0.0015432
        k(  156) = (   0.1111111   0.4169752   0.0000000), wk =   0.0015432
        k(  157) = (   0.1111111   0.4490502   0.0000000), wk =   0.0015432
        k(  158) = (   0.1111111   0.4811252   0.0000000), wk =   0.0015432
        k(  159) = (   0.1111111   0.5132002   0.0000000), wk =   0.0015432
        k(  160) = (   0.1111111   0.5452753   0.0000000), wk =   0.0015432
        k(  161) = (   0.1111111   0.5773503   0.0000000), wk =   0.0015432
        k(  162) = (   0.1111111   0.6094253   0.0000000), wk =   0.0015432
        k(  163) = (   0.1111111   0.6415003   0.0000000), wk =   0.0015432
        k(  164) = (   0.1111111   0.6735753   0.0000000), wk =   0.0015432
        k(  165) = (   0.1111111   0.7056503   0.0000000), wk =   0.0015432
        k(  166) = (   0.1111111   0.7377253   0.0000000), wk =   0.0015432
        k(  167) = (   0.1111111   0.7698004   0.0000000), wk =   0.0015432
        k(  168) = (   0.1111111   0.8018754   0.0000000), wk =   0.0015432
        k(  169) = (   0.1111111   0.8339504   0.0000000), wk =   0.0015432
        k(  170) = (   0.1111111   0.8660254   0.0000000), wk =   0.0015432
        k(  171) = (   0.1111111   0.8981004   0.0000000), wk =   0.0015432
        k(  172) = (   0.1111111   0.9301754   0.0000000), wk =   0.0015432
        k(  173) = (   0.1111111   0.9622505   0.0000000), wk =   0.0015432
        k(  174) = (   0.1111111   0.9943255   0.0000000), wk =   0.0015432
        k(  175) = (   0.1111111   1.0264005   0.0000000), wk =   0.0015432
        k(  176) = (   0.1111111   1.0584755   0.0000000), wk =   0.0015432
        k(  177) = (   0.1111111   1.0905505   0.0000000), wk =   0.0015432
        k(  178) = (   0.1111111   1.1226255   0.0000000), wk =   0.0015432
        k(  179) = (   0.1111111   1.1547005   0.0000000), wk =   0.0015432
        k(  180) = (   0.1111111   1.1867756   0.0000000), wk =   0.0015432
        k(  181) = (   0.1388889   0.0801875   0.0000000), wk =   0.0015432
        k(  182) = (   0.1388889   0.1122626   0.0000000), wk =   0.0015432
        k(  183) = (   0.1388889   0.1443376   0.0000000), wk =   0.0015432
        k(  184) = (   0.1388889   0.1764126   0.0000000), wk =   0.0015432
        k(  185) = (   0.1388889   0.2084876   0.0000000), wk =   0.0015432
        k(  186) = (   0.1388889   0.2405626   0.0000000), wk =   0.0015432
        k(  187) = (   0.1388889   0.2726376   0.0000000), wk =   0.0015432
        k(  188) = (   0.1388889   0.3047126   0.0000000), wk =   0.0015432
        k(  189) = (   0.1388889   0.3367877   0.0000000), wk =   0.0015432
        k(  190) = (   0.1388889   0.3688627   0.0000000), wk =   0.0015432
        k(  191) = (   0.1388889   0.4009377   0.0000000), wk =   0.0015432
        k(  192) = (   0.1388889   0.4330127   0.0000000), wk =   0.0015432
        k(  193) = (   0.1388889   0.4650877   0.0000000), wk =   0.0015432
        k(  194) = (   0.1388889   0.4971627   0.0000000), wk =   0.0015432
        k(  195) = (   0.1388889   0.5292377   0.0000000), wk =   0.0015432
        k(  196) = (   0.1388889   0.5613128   0.0000000), wk =   0.0015432
        k(  197) = (   0.1388889   0.5933878   0.0000000), wk =   0.0015432
        k(  198) = (   0.1388889   0.6254628   0.0000000), wk =   0.0015432
        k(  199) = (   0.1388889   0.6575378   0.0000000), wk =   0.0015432
        k(  200) = (   0.1388889   0.6896128   0.0000000), wk =   0.0015432
        k(  201) = (   0.1388889   0.7216878   0.0000000), wk =   0.0015432
        k(  202) = (   0.1388889   0.7537628   0.0000000), wk =   0.0015432
        k(  203) = (   0.1388889   0.7858379   0.0000000), wk =   0.0015432
        k(  204) = (   0.1388889   0.8179129   0.0000000), wk =   0.0015432
        k(  205) = (   0.1388889   0.8499879   0.0000000), wk =   0.0015432
        k(  206) = (   0.1388889   0.8820629   0.0000000), wk =   0.0015432
        k(  207) = (   0.1388889   0.9141379   0.0000000), wk =   0.0015432
        k(  208) = (   0.1388889   0.9462129   0.0000000), wk =   0.0015432
        k(  209) = (   0.1388889   0.9782880   0.0000000), wk =   0.0015432
        k(  210) = (   0.1388889   1.0103630   0.0000000), wk =   0.0015432
        k(  211) = (   0.1388889   1.0424380   0.0000000), wk =   0.0015432
        k(  212) = (   0.1388889   1.0745130   0.0000000), wk =   0.0015432
        k(  213) = (   0.1388889   1.1065880   0.0000000), wk =   0.0015432
        k(  214) = (   0.1388889   1.1386630   0.0000000), wk =   0.0015432
        k(  215) = (   0.1388889   1.1707380   0.0000000), wk =   0.0015432
        k(  216) = (   0.1388889   1.2028131   0.0000000), wk =   0.0015432
        k(  217) = (   0.1666667   0.0962250   0.0000000), wk =   0.0015432
        k(  218) = (   0.1666667   0.1283001   0.0000000), wk =   0.0015432
        k(  219) = (   0.1666667   0.1603751   0.0000000), wk =   0.0015432
        k(  220) = (   0.1666667   0.1924501   0.0000000), wk =   0.0015432
        k(  221) = (   0.1666667   0.2245251   0.0000000), wk =   0.0015432
        k(  222) = (   0.1666667   0.2566001   0.0000000), wk =   0.0015432
        k(  223) = (   0.1666667   0.2886751   0.0000000), wk =   0.0015432
        k(  224) = (   0.1666667   0.3207501   0.0000000), wk =   0.0015432
        k(  225) = (   0.1666667   0.3528252   0.0000000), wk =   0.0015432
        k(  226) = (   0.1666667   0.3849002   0.0000000), wk =   0.0015432
        k(  227) = (   0.1666667   0.4169752   0.0000000), wk =   0.0015432
        k(  228) = (   0.1666667   0.4490502   0.0000000), wk =   0.0015432
        k(  229) = (   0.1666667   0.4811252   0.0000000), wk =   0.0015432
        k(  230) = (   0.1666667   0.5132002   0.0000000), wk =   0.0015432
        k(  231) = (   0.1666667   0.5452753   0.0000000), wk =   0.0015432
        k(  232) = (   0.1666667   0.5773503   0.0000000), wk =   0.0015432
        k(  233) = (   0.1666667   0.6094253   0.0000000), wk =   0.0015432
        k(  234) = (   0.1666667   0.6415003   0.0000000), wk =   0.0015432
        k(  235) = (   0.1666667   0.6735753   0.0000000), wk =   0.0015432
        k(  236) = (   0.1666667   0.7056503   0.0000000), wk =   0.0015432
        k(  237) = (   0.1666667   0.7377254   0.0000000), wk =   0.0015432
        k(  238) = (   0.1666667   0.7698004   0.0000000), wk =   0.0015432
        k(  239) = (   0.1666667   0.8018754   0.0000000), wk =   0.0015432
        k(  240) = (   0.1666667   0.8339504   0.0000000), wk =   0.0015432
        k(  241) = (   0.1666667   0.8660254   0.0000000), wk =   0.0015432
        k(  242) = (   0.1666667   0.8981004   0.0000000), wk =   0.0015432
        k(  243) = (   0.1666667   0.9301754   0.0000000), wk =   0.0015432
        k(  244) = (   0.1666667   0.9622505   0.0000000), wk =   0.0015432
        k(  245) = (   0.1666667   0.9943255   0.0000000), wk =   0.0015432
        k(  246) = (   0.1666667   1.0264005   0.0000000), wk =   0.0015432
        k(  247) = (   0.1666667   1.0584755   0.0000000), wk =   0.0015432
        k(  248) = (   0.1666667   1.0905505   0.0000000), wk =   0.0015432
        k(  249) = (   0.1666667   1.1226255   0.0000000), wk =   0.0015432
        k(  250) = (   0.1666667   1.1547005   0.0000000), wk =   0.0015432
        k(  251) = (   0.1666667   1.1867756   0.0000000), wk =   0.0015432
        k(  252) = (   0.1666667   1.2188506   0.0000000), wk =   0.0015432
        k(  253) = (   0.1944444   0.1122625   0.0000000), wk =   0.0015432
        k(  254) = (   0.1944444   0.1443376   0.0000000), wk =   0.0015432
        k(  255) = (   0.1944444   0.1764126   0.0000000), wk =   0.0015432
        k(  256) = (   0.1944444   0.2084876   0.0000000), wk =   0.0015432
        k(  257) = (   0.1944444   0.2405626   0.0000000), wk =   0.0015432
        k(  258) = (   0.1944444   0.2726376   0.0000000), wk =   0.0015432
        k(  259) = (   0.1944444   0.3047126   0.0000000), wk =   0.0015432
        k(  260) = (   0.1944444   0.3367876   0.0000000), wk =   0.0015432
        k(  261) = (   0.1944444   0.3688627   0.0000000), wk =   0.0015432
        k(  262) = (   0.1944444   0.4009377   0.0000000), wk =   0.0015432
        k(  263) = (   0.1944444   0.4330127   0.0000000), wk =   0.0015432
        k(  264) = (   0.1944444   0.4650877   0.0000000), wk =   0.0015432
        k(  265) = (   0.1944444   0.4971627   0.0000000), wk =   0.0015432
        k(  266) = (   0.1944444   0.5292377   0.0000000), wk =   0.0015432
        k(  267) = (   0.1944444   0.5613128   0.0000000), wk =   0.0015432
        k(  268) = (   0.1944444   0.5933878   0.0000000), wk =   0.0015432
        k(  269) = (   0.1944444   0.6254628   0.0000000), wk =   0.0015432
        k(  270) = (   0.1944444   0.6575378   0.0000000), wk =   0.0015432
        k(  271) = (   0.1944444   0.6896128   0.0000000), wk =   0.0015432
        k(  272) = (   0.1944444   0.7216878   0.0000000), wk =   0.0015432
        k(  273) = (   0.1944444   0.7537629   0.0000000), wk =   0.0015432
        k(  274) = (   0.1944444   0.7858379   0.0000000), wk =   0.0015432
        k(  275) = (   0.1944444   0.8179129   0.0000000), wk =   0.0015432
        k(  276) = (   0.1944444   0.8499879   0.0000000), wk =   0.0015432
        k(  277) = (   0.1944444   0.8820629   0.0000000), wk =   0.0015432
        k(  278) = (   0.1944444   0.9141379   0.0000000), wk =   0.0015432
        k(  279) = (   0.1944444   0.9462129   0.0000000), wk =   0.0015432
        k(  280) = (   0.1944444   0.9782880   0.0000000), wk =   0.0015432
        k(  281) = (   0.1944444   1.0103630   0.0000000), wk =   0.0015432
        k(  282) = (   0.1944444   1.0424380   0.0000000), wk =   0.0015432
        k(  283) = (   0.1944444   1.0745130   0.0000000), wk =   0.0015432
        k(  284) = (   0.1944444   1.1065880   0.0000000), wk =   0.0015432
        k(  285) = (   0.1944444   1.1386630   0.0000000), wk =   0.0015432
        k(  286) = (   0.1944444   1.1707380   0.0000000), wk =   0.0015432
        k(  287) = (   0.1944444   1.2028131   0.0000000), wk =   0.0015432
        k(  288) = (   0.1944444   1.2348881   0.0000000), wk =   0.0015432
        k(  289) = (   0.2222222   0.1283001   0.0000000), wk =   0.0015432
        k(  290) = (   0.2222222   0.1603751   0.0000000), wk =   0.0015432
        k(  291) = (   0.2222222   0.1924501   0.0000000), wk =   0.0015432
        k(  292) = (   0.2222222   0.2245251   0.0000000), wk =   0.0015432
        k(  293) = (   0.2222222   0.2566001   0.0000000), wk =   0.0015432
        k(  294) = (   0.2222222   0.2886751   0.0000000), wk =   0.0015432
        k(  295) = (   0.2222222   0.3207502   0.0000000), wk =   0.0015432
        k(  296) = (   0.2222222   0.3528252   0.0000000), wk =   0.0015432
        k(  297) = (   0.2222222   0.3849002   0.0000000), wk =   0.0015432
        k(  298) = (   0.2222222   0.4169752   0.0000000), wk =   0.0015432
        k(  299) = (   0.2222222   0.4490502   0.0000000), wk =   0.0015432
        k(  300) = (   0.2222222   0.4811252   0.0000000), wk =   0.0015432
        k(  301) = (   0.2222222   0.5132002   0.0000000), wk =   0.0015432
        k(  302) = (   0.2222222   0.5452753   0.0000000), wk =   0.0015432
        k(  303) = (   0.2222222   0.5773503   0.0000000), wk =   0.0015432
        k(  304) = (   0.2222222   0.6094253   0.0000000), wk =   0.0015432
        k(  305) = (   0.2222222   0.6415003   0.0000000), wk =   0.0015432
        k(  306) = (   0.2222222   0.6735753   0.0000000), wk =   0.0015432
        k(  307) = (   0.2222222   0.7056503   0.0000000), wk =   0.0015432
        k(  308) = (   0.2222222   0.7377253   0.0000000), wk =   0.0015432
        k(  309) = (   0.2222222   0.7698004   0.0000000), wk =   0.0015432
        k(  310) = (   0.2222222   0.8018754   0.0000000), wk =   0.0015432
        k(  311) = (   0.2222222   0.8339504   0.0000000), wk =   0.0015432
        k(  312) = (   0.2222222   0.8660254   0.0000000), wk =   0.0015432
        k(  313) = (   0.2222222   0.8981004   0.0000000), wk =   0.0015432
        k(  314) = (   0.2222222   0.9301754   0.0000000), wk =   0.0015432
        k(  315) = (   0.2222222   0.9622504   0.0000000), wk =   0.0015432
        k(  316) = (   0.2222222   0.9943255   0.0000000), wk =   0.0015432
        k(  317) = (   0.2222222   1.0264005   0.0000000), wk =   0.0015432
        k(  318) = (   0.2222222   1.0584755   0.0000000), wk =   0.0015432
        k(  319) = (   0.2222222   1.0905505   0.0000000), wk =   0.0015432
        k(  320) = (   0.2222222   1.1226255   0.0000000), wk =   0.0015432
        k(  321) = (   0.2222222   1.1547005   0.0000000), wk =   0.0015432
        k(  322) = (   0.2222222   1.1867756   0.0000000), wk =   0.0015432
        k(  323) = (   0.2222222   1.2188506   0.0000000), wk =   0.0015432
        k(  324) = (   0.2222222   1.2509256   0.0000000), wk =   0.0015432
        k(  325) = (   0.2500000   0.1443376   0.0000000), wk =   0.0015432
        k(  326) = (   0.2500000   0.1764126   0.0000000), wk =   0.0015432
        k(  327) = (   0.2500000   0.2084876   0.0000000), wk =   0.0015432
        k(  328) = (   0.2500000   0.2405626   0.0000000), wk =   0.0015432
        k(  329) = (   0.2500000   0.2726376   0.0000000), wk =   0.0015432
        k(  330) = (   0.2500000   0.3047126   0.0000000), wk =   0.0015432
        k(  331) = (   0.2500000   0.3367877   0.0000000), wk =   0.0015432
        k(  332) = (   0.2500000   0.3688627   0.0000000), wk =   0.0015432
        k(  333) = (   0.2500000   0.4009377   0.0000000), wk =   0.0015432
        k(  334) = (   0.2500000   0.4330127   0.0000000), wk =   0.0015432
        k(  335) = (   0.2500000   0.4650877   0.0000000), wk =   0.0015432
        k(  336) = (   0.2500000   0.4971627   0.0000000), wk =   0.0015432
        k(  337) = (   0.2500000   0.5292377   0.0000000), wk =   0.0015432
        k(  338) = (   0.2500000   0.5613128   0.0000000), wk =   0.0015432
        k(  339) = (   0.2500000   0.5933878   0.0000000), wk =   0.0015432
        k(  340) = (   0.2500000   0.6254628   0.0000000), wk =   0.0015432
        k(  341) = (   0.2500000   0.6575378   0.0000000), wk =   0.0015432
        k(  342) = (   0.2500000   0.6896128   0.0000000), wk =   0.0015432
        k(  343) = (   0.2500000   0.7216878   0.0000000), wk =   0.0015432
        k(  344) = (   0.2500000   0.7537629   0.0000000), wk =   0.0015432
        k(  345) = (   0.2500000   0.7858379   0.0000000), wk =   0.0015432
        k(  346) = (   0.2500000   0.8179129   0.0000000), wk =   0.0015432
        k(  347) = (   0.2500000   0.8499879   0.0000000), wk =   0.0015432
        k(  348) = (   0.2500000   0.8820629   0.0000000), wk =   0.0015432
        k(  349) = (   0.2500000   0.9141379   0.0000000), wk =   0.0015432
        k(  350) = (   0.2500000   0.9462129   0.0000000), wk =   0.0015432
        k(  351) = (   0.2500000   0.9782880   0.0000000), wk =   0.0015432
        k(  352) = (   0.2500000   1.0103630   0.0000000), wk =   0.0015432
        k(  353) = (   0.2500000   1.0424380   0.0000000), wk =   0.0015432
        k(  354) = (   0.2500000   1.0745130   0.0000000), wk =   0.0015432
        k(  355) = (   0.2500000   1.1065880   0.0000000), wk =   0.0015432
        k(  356) = (   0.2500000   1.1386630   0.0000000), wk =   0.0015432
        k(  357) = (   0.2500000   1.1707380   0.0000000), wk =   0.0015432
        k(  358) = (   0.2500000   1.2028131   0.0000000), wk =   0.0015432
        k(  359) = (   0.2500000   1.2348881   0.0000000), wk =   0.0015432
        k(  360) = (   0.2500000   1.2669631   0.0000000), wk =   0.0015432
        k(  361) = (   0.2777778   0.1603751   0.0000000), wk =   0.0015432
        k(  362) = (   0.2777778   0.1924501   0.0000000), wk =   0.0015432
        k(  363) = (   0.2777778   0.2245251   0.0000000), wk =   0.0015432
        k(  364) = (   0.2777778   0.2566001   0.0000000), wk =   0.0015432
        k(  365) = (   0.2777778   0.2886751   0.0000000), wk =   0.0015432
        k(  366) = (   0.2777778   0.3207502   0.0000000), wk =   0.0015432
        k(  367) = (   0.2777778   0.3528252   0.0000000), wk =   0.0015432
        k(  368) = (   0.2777778   0.3849002   0.0000000), wk =   0.0015432
        k(  369) = (   0.2777778   0.4169752   0.0000000), wk =   0.0015432
        k(  370) = (   0.2777778   0.4490502   0.0000000), wk =   0.0015432
        k(  371) = (   0.2777778   0.4811252   0.0000000), wk =   0.0015432
        k(  372) = (   0.2777778   0.5132002   0.0000000), wk =   0.0015432
        k(  373) = (   0.2777778   0.5452753   0.0000000), wk =   0.0015432
        k(  374) = (   0.2777778   0.5773503   0.0000000), wk =   0.0015432
        k(  375) = (   0.2777778   0.6094253   0.0000000), wk =   0.0015432
        k(  376) = (   0.2777778   0.6415003   0.0000000), wk =   0.0015432
        k(  377) = (   0.2777778   0.6735753   0.0000000), wk =   0.0015432
        k(  378) = (   0.2777778   0.7056503   0.0000000), wk =   0.0015432
        k(  379) = (   0.2777778   0.7377253   0.0000000), wk =   0.0015432
        k(  380) = (   0.2777778   0.7698004   0.0000000), wk =   0.0015432
        k(  381) = (   0.2777778   0.8018754   0.0000000), wk =   0.0015432
        k(  382) = (   0.2777778   0.8339504   0.0000000), wk =   0.0015432
        k(  383) = (   0.2777778   0.8660254   0.0000000), wk =   0.0015432
        k(  384) = (   0.2777778   0.8981004   0.0000000), wk =   0.0015432
        k(  385) = (   0.2777778   0.9301754   0.0000000), wk =   0.0015432
        k(  386) = (   0.2777778   0.9622504   0.0000000), wk =   0.0015432
        k(  387) = (   0.2777778   0.9943255   0.0000000), wk =   0.0015432
        k(  388) = (   0.2777778   1.0264005   0.0000000), wk =   0.0015432
        k(  389) = (   0.2777778   1.0584755   0.0000000), wk =   0.0015432
        k(  390) = (   0.2777778   1.0905505   0.0000000), wk =   0.0015432
        k(  391) = (   0.2777778   1.1226255   0.0000000), wk =   0.0015432
        k(  392) = (   0.2777778   1.1547005   0.0000000), wk =   0.0015432
        k(  393) = (   0.2777778   1.1867756   0.0000000), wk =   0.0015432
        k(  394) = (   0.2777778   1.2188506   0.0000000), wk =   0.0015432
        k(  395) = (   0.2777778   1.2509256   0.0000000), wk =   0.0015432
        k(  396) = (   0.2777778   1.2830006   0.0000000), wk =   0.0015432
        k(  397) = (   0.3055556   0.1764126   0.0000000), wk =   0.0015432
        k(  398) = (   0.3055556   0.2084876   0.0000000), wk =   0.0015432
        k(  399) = (   0.3055556   0.2405626   0.0000000), wk =   0.0015432
        k(  400) = (   0.3055556   0.2726376   0.0000000), wk =   0.0015432
        k(  401) = (   0.3055556   0.3047126   0.0000000), wk =   0.0015432
        k(  402) = (   0.3055556   0.3367877   0.0000000), wk =   0.0015432
        k(  403) = (   0.3055556   0.3688627   0.0000000), wk =   0.0015432
        k(  404) = (   0.3055556   0.4009377   0.0000000), wk =   0.0015432
        k(  405) = (   0.3055556   0.4330127   0.0000000), wk =   0.0015432
        k(  406) = (   0.3055556   0.4650877   0.0000000), wk =   0.0015432
        k(  407) = (   0.3055556   0.4971627   0.0000000), wk =   0.0015432
        k(  408) = (   0.3055556   0.5292378   0.0000000), wk =   0.0015432
        k(  409) = (   0.3055556   0.5613128   0.0000000), wk =   0.0015432
        k(  410) = (   0.3055556   0.5933878   0.0000000), wk =   0.0015432
        k(  411) = (   0.3055556   0.6254628   0.0000000), wk =   0.0015432
        k(  412) = (   0.3055556   0.6575378   0.0000000), wk =   0.0015432
        k(  413) = (   0.3055556   0.6896128   0.0000000), wk =   0.0015432
        k(  414) = (   0.3055556   0.7216878   0.0000000), wk =   0.0015432
        k(  415) = (   0.3055556   0.7537629   0.0000000), wk =   0.0015432
        k(  416) = (   0.3055556   0.7858379   0.0000000), wk =   0.0015432
        k(  417) = (   0.3055556   0.8179129   0.0000000), wk =   0.0015432
        k(  418) = (   0.3055556   0.8499879   0.0000000), wk =   0.0015432
        k(  419) = (   0.3055556   0.8820629   0.0000000), wk =   0.0015432
        k(  420) = (   0.3055556   0.9141379   0.0000000), wk =   0.0015432
        k(  421) = (   0.3055556   0.9462129   0.0000000), wk =   0.0015432
        k(  422) = (   0.3055556   0.9782880   0.0000000), wk =   0.0015432
        k(  423) = (   0.3055556   1.0103630   0.0000000), wk =   0.0015432
        k(  424) = (   0.3055556   1.0424380   0.0000000), wk =   0.0015432
        k(  425) = (   0.3055556   1.0745130   0.0000000), wk =   0.0015432
        k(  426) = (   0.3055556   1.1065880   0.0000000), wk =   0.0015432
        k(  427) = (   0.3055556   1.1386630   0.0000000), wk =   0.0015432
        k(  428) = (   0.3055556   1.1707380   0.0000000), wk =   0.0015432
        k(  429) = (   0.3055556   1.2028131   0.0000000), wk =   0.0015432
        k(  430) = (   0.3055556   1.2348881   0.0000000), wk =   0.0015432
        k(  431) = (   0.3055556   1.2669631   0.0000000), wk =   0.0015432
        k(  432) = (   0.3055556   1.2990381   0.0000000), wk =   0.0015432
        k(  433) = (   0.3333333   0.1924501   0.0000000), wk =   0.0015432
        k(  434) = (   0.3333333   0.2245251   0.0000000), wk =   0.0015432
        k(  435) = (   0.3333333   0.2566001   0.0000000), wk =   0.0015432
        k(  436) = (   0.3333333   0.2886751   0.0000000), wk =   0.0015432
        k(  437) = (   0.3333333   0.3207501   0.0000000), wk =   0.0015432
        k(  438) = (   0.3333333   0.3528252   0.0000000), wk =   0.0015432
        k(  439) = (   0.3333333   0.3849002   0.0000000), wk =   0.0015432
        k(  440) = (   0.3333333   0.4169752   0.0000000), wk =   0.0015432
        k(  441) = (   0.3333333   0.4490502   0.0000000), wk =   0.0015432
        k(  442) = (   0.3333333   0.4811252   0.0000000), wk =   0.0015432
        k(  443) = (   0.3333333   0.5132002   0.0000000), wk =   0.0015432
        k(  444) = (   0.3333333   0.5452753   0.0000000), wk =   0.0015432
        k(  445) = (   0.3333333   0.5773503   0.0000000), wk =   0.0015432
        k(  446) = (   0.3333333   0.6094253   0.0000000), wk =   0.0015432
        k(  447) = (   0.3333333   0.6415003   0.0000000), wk =   0.0015432
        k(  448) = (   0.3333333   0.6735753   0.0000000), wk =   0.0015432
        k(  449) = (   0.3333333   0.7056503   0.0000000), wk =   0.0015432
        k(  450) = (   0.3333333   0.7377253   0.0000000), wk =   0.0015432
        k(  451) = (   0.3333333   0.7698004   0.0000000), wk =   0.0015432
        k(  452) = (   0.3333333   0.8018754   0.0000000), wk =   0.0015432
        k(  453) = (   0.3333333   0.8339504   0.0000000), wk =   0.0015432
        k(  454) = (   0.3333333   0.8660254   0.0000000), wk =   0.0015432
        k(  455) = (   0.3333333   0.8981004   0.0000000), wk =   0.0015432
        k(  456) = (   0.3333333   0.9301754   0.0000000), wk =   0.0015432
        k(  457) = (   0.3333333   0.9622505   0.0000000), wk =   0.0015432
        k(  458) = (   0.3333333   0.9943255   0.0000000), wk =   0.0015432
        k(  459) = (   0.3333333   1.0264005   0.0000000), wk =   0.0015432
        k(  460) = (   0.3333333   1.0584755   0.0000000), wk =   0.0015432
        k(  461) = (   0.3333333   1.0905505   0.0000000), wk =   0.0015432
        k(  462) = (   0.3333333   1.1226255   0.0000000), wk =   0.0015432
        k(  463) = (   0.3333333   1.1547005   0.0000000), wk =   0.0015432
        k(  464) = (   0.3333333   1.1867756   0.0000000), wk =   0.0015432
        k(  465) = (   0.3333333   1.2188506   0.0000000), wk =   0.0015432
        k(  466) = (   0.3333333   1.2509256   0.0000000), wk =   0.0015432
        k(  467) = (   0.3333333   1.2830006   0.0000000), wk =   0.0015432
        k(  468) = (   0.3333333   1.3150756   0.0000000), wk =   0.0015432
        k(  469) = (   0.3611111   0.2084876   0.0000000), wk =   0.0015432
        k(  470) = (   0.3611111   0.2405626   0.0000000), wk =   0.0015432
        k(  471) = (   0.3611111   0.2726376   0.0000000), wk =   0.0015432
        k(  472) = (   0.3611111   0.3047126   0.0000000), wk =   0.0015432
        k(  473) = (   0.3611111   0.3367877   0.0000000), wk =   0.0015432
        k(  474) = (   0.3611111   0.3688627   0.0000000), wk =   0.0015432
        k(  475) = (   0.3611111   0.4009377   0.0000000), wk =   0.0015432
        k(  476) = (   0.3611111   0.4330127   0.0000000), wk =   0.0015432
        k(  477) = (   0.3611111   0.4650877   0.0000000), wk =   0.0015432
        k(  478) = (   0.3611111   0.4971627   0.0000000), wk =   0.0015432
        k(  479) = (   0.3611111   0.5292377   0.0000000), wk =   0.0015432
        k(  480) = (   0.3611111   0.5613128   0.0000000), wk =   0.0015432
        k(  481) = (   0.3611111   0.5933878   0.0000000), wk =   0.0015432
        k(  482) = (   0.3611111   0.6254628   0.0000000), wk =   0.0015432
        k(  483) = (   0.3611111   0.6575378   0.0000000), wk =   0.0015432
        k(  484) = (   0.3611111   0.6896128   0.0000000), wk =   0.0015432
        k(  485) = (   0.3611111   0.7216878   0.0000000), wk =   0.0015432
        k(  486) = (   0.3611111   0.7537628   0.0000000), wk =   0.0015432
        k(  487) = (   0.3611111   0.7858379   0.0000000), wk =   0.0015432
        k(  488) = (   0.3611111   0.8179129   0.0000000), wk =   0.0015432
        k(  489) = (   0.3611111   0.8499879   0.0000000), wk =   0.0015432
        k(  490) = (   0.3611111   0.8820629   0.0000000), wk =   0.0015432
        k(  491) = (   0.3611111   0.9141379   0.0000000), wk =   0.0015432
        k(  492) = (   0.3611111   0.9462129   0.0000000), wk =   0.0015432
        k(  493) = (   0.3611111   0.9782880   0.0000000), wk =   0.0015432
        k(  494) = (   0.3611111   1.0103630   0.0000000), wk =   0.0015432
        k(  495) = (   0.3611111   1.0424380   0.0000000), wk =   0.0015432
        k(  496) = (   0.3611111   1.0745130   0.0000000), wk =   0.0015432
        k(  497) = (   0.3611111   1.1065880   0.0000000), wk =   0.0015432
        k(  498) = (   0.3611111   1.1386630   0.0000000), wk =   0.0015432
        k(  499) = (   0.3611111   1.1707380   0.0000000), wk =   0.0015432
        k(  500) = (   0.3611111   1.2028131   0.0000000), wk =   0.0015432
        k(  501) = (   0.3611111   1.2348881   0.0000000), wk =   0.0015432
        k(  502) = (   0.3611111   1.2669631   0.0000000), wk =   0.0015432
        k(  503) = (   0.3611111   1.2990381   0.0000000), wk =   0.0015432
        k(  504) = (   0.3611111   1.3311131   0.0000000), wk =   0.0015432
        k(  505) = (   0.3888889   0.2245251   0.0000000), wk =   0.0015432
        k(  506) = (   0.3888889   0.2566001   0.0000000), wk =   0.0015432
        k(  507) = (   0.3888889   0.2886751   0.0000000), wk =   0.0015432
        k(  508) = (   0.3888889   0.3207501   0.0000000), wk =   0.0015432
        k(  509) = (   0.3888889   0.3528252   0.0000000), wk =   0.0015432
        k(  510) = (   0.3888889   0.3849002   0.0000000), wk =   0.0015432
        k(  511) = (   0.3888889   0.4169752   0.0000000), wk =   0.0015432
        k(  512) = (   0.3888889   0.4490502   0.0000000), wk =   0.0015432
        k(  513) = (   0.3888889   0.4811252   0.0000000), wk =   0.0015432
        k(  514) = (   0.3888889   0.5132002   0.0000000), wk =   0.0015432
        k(  515) = (   0.3888889   0.5452753   0.0000000), wk =   0.0015432
        k(  516) = (   0.3888889   0.5773503   0.0000000), wk =   0.0015432
        k(  517) = (   0.3888889   0.6094253   0.0000000), wk =   0.0015432
        k(  518) = (   0.3888889   0.6415003   0.0000000), wk =   0.0015432
        k(  519) = (   0.3888889   0.6735753   0.0000000), wk =   0.0015432
        k(  520) = (   0.3888889   0.7056503   0.0000000), wk =   0.0015432
        k(  521) = (   0.3888889   0.7377253   0.0000000), wk =   0.0015432
        k(  522) = (   0.3888889   0.7698004   0.0000000), wk =   0.0015432
        k(  523) = (   0.3888889   0.8018754   0.0000000), wk =   0.0015432
        k(  524) = (   0.3888889   0.8339504   0.0000000), wk =   0.0015432
        k(  525) = (   0.3888889   0.8660254   0.0000000), wk =   0.0015432
        k(  526) = (   0.3888889   0.8981004   0.0000000), wk =   0.0015432
        k(  527) = (   0.3888889   0.9301754   0.0000000), wk =   0.0015432
        k(  528) = (   0.3888889   0.9622505   0.0000000), wk =   0.0015432
        k(  529) = (   0.3888889   0.9943255   0.0000000), wk =   0.0015432
        k(  530) = (   0.3888889   1.0264005   0.0000000), wk =   0.0015432
        k(  531) = (   0.3888889   1.0584755   0.0000000), wk =   0.0015432
        k(  532) = (   0.3888889   1.0905505   0.0000000), wk =   0.0015432
        k(  533) = (   0.3888889   1.1226255   0.0000000), wk =   0.0015432
        k(  534) = (   0.3888889   1.1547005   0.0000000), wk =   0.0015432
        k(  535) = (   0.3888889   1.1867756   0.0000000), wk =   0.0015432
        k(  536) = (   0.3888889   1.2188506   0.0000000), wk =   0.0015432
        k(  537) = (   0.3888889   1.2509256   0.0000000), wk =   0.0015432
        k(  538) = (   0.3888889   1.2830006   0.0000000), wk =   0.0015432
        k(  539) = (   0.3888889   1.3150756   0.0000000), wk =   0.0015432
        k(  540) = (   0.3888889   1.3471506   0.0000000), wk =   0.0015432
        k(  541) = (   0.4166667   0.2405626   0.0000000), wk =   0.0015432
        k(  542) = (   0.4166667   0.2726376   0.0000000), wk =   0.0015432
        k(  543) = (   0.4166667   0.3047126   0.0000000), wk =   0.0015432
        k(  544) = (   0.4166667   0.3367877   0.0000000), wk =   0.0015432
        k(  545) = (   0.4166667   0.3688627   0.0000000), wk =   0.0015432
        k(  546) = (   0.4166667   0.4009377   0.0000000), wk =   0.0015432
        k(  547) = (   0.4166667   0.4330127   0.0000000), wk =   0.0015432
        k(  548) = (   0.4166667   0.4650877   0.0000000), wk =   0.0015432
        k(  549) = (   0.4166667   0.4971627   0.0000000), wk =   0.0015432
        k(  550) = (   0.4166667   0.5292377   0.0000000), wk =   0.0015432
        k(  551) = (   0.4166667   0.5613128   0.0000000), wk =   0.0015432
        k(  552) = (   0.4166667   0.5933878   0.0000000), wk =   0.0015432
        k(  553) = (   0.4166667   0.6254628   0.0000000), wk =   0.0015432
        k(  554) = (   0.4166667   0.6575378   0.0000000), wk =   0.0015432
        k(  555) = (   0.4166667   0.6896128   0.0000000), wk =   0.0015432
        k(  556) = (   0.4166667   0.7216878   0.0000000), wk =   0.0015432
        k(  557) = (   0.4166667   0.7537628   0.0000000), wk =   0.0015432
        k(  558) = (   0.4166667   0.7858379   0.0000000), wk =   0.0015432
        k(  559) = (   0.4166667   0.8179129   0.0000000), wk =   0.0015432
        k(  560) = (   0.4166667   0.8499879   0.0000000), wk =   0.0015432
        k(  561) = (   0.4166667   0.8820629   0.0000000), wk =   0.0015432
        k(  562) = (   0.4166667   0.9141379   0.0000000), wk =   0.0015432
        k(  563) = (   0.4166667   0.9462129   0.0000000), wk =   0.0015432
        k(  564) = (   0.4166667   0.9782880   0.0000000), wk =   0.0015432
        k(  565) = (   0.4166667   1.0103630   0.0000000), wk =   0.0015432
        k(  566) = (   0.4166667   1.0424380   0.0000000), wk =   0.0015432
        k(  567) = (   0.4166667   1.0745130   0.0000000), wk =   0.0015432
        k(  568) = (   0.4166667   1.1065880   0.0000000), wk =   0.0015432
        k(  569) = (   0.4166667   1.1386630   0.0000000), wk =   0.0015432
        k(  570) = (   0.4166667   1.1707381   0.0000000), wk =   0.0015432
        k(  571) = (   0.4166667   1.2028131   0.0000000), wk =   0.0015432
        k(  572) = (   0.4166667   1.2348881   0.0000000), wk =   0.0015432
        k(  573) = (   0.4166667   1.2669631   0.0000000), wk =   0.0015432
        k(  574) = (   0.4166667   1.2990381   0.0000000), wk =   0.0015432
        k(  575) = (   0.4166667   1.3311131   0.0000000), wk =   0.0015432
        k(  576) = (   0.4166667   1.3631881   0.0000000), wk =   0.0015432
        k(  577) = (   0.4444444   0.2566001   0.0000000), wk =   0.0015432
        k(  578) = (   0.4444444   0.2886751   0.0000000), wk =   0.0015432
        k(  579) = (   0.4444444   0.3207502   0.0000000), wk =   0.0015432
        k(  580) = (   0.4444444   0.3528252   0.0000000), wk =   0.0015432
        k(  581) = (   0.4444444   0.3849002   0.0000000), wk =   0.0015432
        k(  582) = (   0.4444444   0.4169752   0.0000000), wk =   0.0015432
        k(  583) = (   0.4444444   0.4490502   0.0000000), wk =   0.0015432
        k(  584) = (   0.4444444   0.4811252   0.0000000), wk =   0.0015432
        k(  585) = (   0.4444444   0.5132002   0.0000000), wk =   0.0015432
        k(  586) = (   0.4444444   0.5452753   0.0000000), wk =   0.0015432
        k(  587) = (   0.4444444   0.5773503   0.0000000), wk =   0.0015432
        k(  588) = (   0.4444444   0.6094253   0.0000000), wk =   0.0015432
        k(  589) = (   0.4444444   0.6415003   0.0000000), wk =   0.0015432
        k(  590) = (   0.4444444   0.6735753   0.0000000), wk =   0.0015432
        k(  591) = (   0.4444444   0.7056503   0.0000000), wk =   0.0015432
        k(  592) = (   0.4444444   0.7377253   0.0000000), wk =   0.0015432
        k(  593) = (   0.4444444   0.7698004   0.0000000), wk =   0.0015432
        k(  594) = (   0.4444444   0.8018754   0.0000000), wk =   0.0015432
        k(  595) = (   0.4444444   0.8339504   0.0000000), wk =   0.0015432
        k(  596) = (   0.4444444   0.8660254   0.0000000), wk =   0.0015432
        k(  597) = (   0.4444444   0.8981004   0.0000000), wk =   0.0015432
        k(  598) = (   0.4444444   0.9301754   0.0000000), wk =   0.0015432
        k(  599) = (   0.4444444   0.9622504   0.0000000), wk =   0.0015432
        k(  600) = (   0.4444444   0.9943255   0.0000000), wk =   0.0015432
        k(  601) = (   0.4444444   1.0264005   0.0000000), wk =   0.0015432
        k(  602) = (   0.4444444   1.0584755   0.0000000), wk =   0.0015432
        k(  603) = (   0.4444444   1.0905505   0.0000000), wk =   0.0015432
        k(  604) = (   0.4444444   1.1226255   0.0000000), wk =   0.0015432
        k(  605) = (   0.4444444   1.1547005   0.0000000), wk =   0.0015432
        k(  606) = (   0.4444444   1.1867756   0.0000000), wk =   0.0015432
        k(  607) = (   0.4444444   1.2188506   0.0000000), wk =   0.0015432
        k(  608) = (   0.4444444   1.2509256   0.0000000), wk =   0.0015432
        k(  609) = (   0.4444444   1.2830006   0.0000000), wk =   0.0015432
        k(  610) = (   0.4444444   1.3150756   0.0000000), wk =   0.0015432
        k(  611) = (   0.4444444   1.3471506   0.0000000), wk =   0.0015432
        k(  612) = (   0.4444444   1.3792256   0.0000000), wk =   0.0015432
        k(  613) = (   0.4722222   0.2726376   0.0000000), wk =   0.0015432
        k(  614) = (   0.4722222   0.3047126   0.0000000), wk =   0.0015432
        k(  615) = (   0.4722222   0.3367877   0.0000000), wk =   0.0015432
        k(  616) = (   0.4722222   0.3688627   0.0000000), wk =   0.0015432
        k(  617) = (   0.4722222   0.4009377   0.0000000), wk =   0.0015432
        k(  618) = (   0.4722222   0.4330127   0.0000000), wk =   0.0015432
        k(  619) = (   0.4722222   0.4650877   0.0000000), wk =   0.0015432
        k(  620) = (   0.4722222   0.4971627   0.0000000), wk =   0.0015432
        k(  621) = (   0.4722222   0.5292377   0.0000000), wk =   0.0015432
        k(  622) = (   0.4722222   0.5613128   0.0000000), wk =   0.0015432
        k(  623) = (   0.4722222   0.5933878   0.0000000), wk =   0.0015432
        k(  624) = (   0.4722222   0.6254628   0.0000000), wk =   0.0015432
        k(  625) = (   0.4722222   0.6575378   0.0000000), wk =   0.0015432
        k(  626) = (   0.4722222   0.6896128   0.0000000), wk =   0.0015432
        k(  627) = (   0.4722222   0.7216878   0.0000000), wk =   0.0015432
        k(  628) = (   0.4722222   0.7537629   0.0000000), wk =   0.0015432
        k(  629) = (   0.4722222   0.7858379   0.0000000), wk =   0.0015432
        k(  630) = (   0.4722222   0.8179129   0.0000000), wk =   0.0015432
        k(  631) = (   0.4722222   0.8499879   0.0000000), wk =   0.0015432
        k(  632) = (   0.4722222   0.8820629   0.0000000), wk =   0.0015432
        k(  633) = (   0.4722222   0.9141379   0.0000000), wk =   0.0015432
        k(  634) = (   0.4722222   0.9462129   0.0000000), wk =   0.0015432
        k(  635) = (   0.4722222   0.9782880   0.0000000), wk =   0.0015432
        k(  636) = (   0.4722222   1.0103630   0.0000000), wk =   0.0015432
        k(  637) = (   0.4722222   1.0424380   0.0000000), wk =   0.0015432
        k(  638) = (   0.4722222   1.0745130   0.0000000), wk =   0.0015432
        k(  639) = (   0.4722222   1.1065880   0.0000000), wk =   0.0015432
        k(  640) = (   0.4722222   1.1386630   0.0000000), wk =   0.0015432
        k(  641) = (   0.4722222   1.1707380   0.0000000), wk =   0.0015432
        k(  642) = (   0.4722222   1.2028131   0.0000000), wk =   0.0015432
        k(  643) = (   0.4722222   1.2348881   0.0000000), wk =   0.0015432
        k(  644) = (   0.4722222   1.2669631   0.0000000), wk =   0.0015432
        k(  645) = (   0.4722222   1.2990381   0.0000000), wk =   0.0015432
        k(  646) = (   0.4722222   1.3311131   0.0000000), wk =   0.0015432
        k(  647) = (   0.4722222   1.3631881   0.0000000), wk =   0.0015432
        k(  648) = (   0.4722222   1.3952631   0.0000000), wk =   0.0015432
        k(  649) = (   0.5000000   0.2886751   0.0000000), wk =   0.0015432
        k(  650) = (   0.5000000   0.3207502   0.0000000), wk =   0.0015432
        k(  651) = (   0.5000000   0.3528252   0.0000000), wk =   0.0015432
        k(  652) = (   0.5000000   0.3849002   0.0000000), wk =   0.0015432
        k(  653) = (   0.5000000   0.4169752   0.0000000), wk =   0.0015432
        k(  654) = (   0.5000000   0.4490502   0.0000000), wk =   0.0015432
        k(  655) = (   0.5000000   0.4811252   0.0000000), wk =   0.0015432
        k(  656) = (   0.5000000   0.5132002   0.0000000), wk =   0.0015432
        k(  657) = (   0.5000000   0.5452753   0.0000000), wk =   0.0015432
        k(  658) = (   0.5000000   0.5773503   0.0000000), wk =   0.0015432
        k(  659) = (   0.5000000   0.6094253   0.0000000), wk =   0.0015432
        k(  660) = (   0.5000000   0.6415003   0.0000000), wk =   0.0015432
        k(  661) = (   0.5000000   0.6735753   0.0000000), wk =   0.0015432
        k(  662) = (   0.5000000   0.7056503   0.0000000), wk =   0.0015432
        k(  663) = (   0.5000000   0.7377253   0.0000000), wk =   0.0015432
        k(  664) = (   0.5000000   0.7698004   0.0000000), wk =   0.0015432
        k(  665) = (   0.5000000   0.8018754   0.0000000), wk =   0.0015432
        k(  666) = (   0.5000000   0.8339504   0.0000000), wk =   0.0015432
        k(  667) = (   0.5000000   0.8660254   0.0000000), wk =   0.0015432
        k(  668) = (   0.5000000   0.8981004   0.0000000), wk =   0.0015432
        k(  669) = (   0.5000000   0.9301754   0.0000000), wk =   0.0015432
        k(  670) = (   0.5000000   0.9622504   0.0000000), wk =   0.0015432
        k(  671) = (   0.5000000   0.9943255   0.0000000), wk =   0.0015432
        k(  672) = (   0.5000000   1.0264005   0.0000000), wk =   0.0015432
        k(  673) = (   0.5000000   1.0584755   0.0000000), wk =   0.0015432
        k(  674) = (   0.5000000   1.0905505   0.0000000), wk =   0.0015432
        k(  675) = (   0.5000000   1.1226255   0.0000000), wk =   0.0015432
        k(  676) = (   0.5000000   1.1547005   0.0000000), wk =   0.0015432
        k(  677) = (   0.5000000   1.1867756   0.0000000), wk =   0.0015432
        k(  678) = (   0.5000000   1.2188506   0.0000000), wk =   0.0015432
        k(  679) = (   0.5000000   1.2509256   0.0000000), wk =   0.0015432
        k(  680) = (   0.5000000   1.2830006   0.0000000), wk =   0.0015432
        k(  681) = (   0.5000000   1.3150756   0.0000000), wk =   0.0015432
        k(  682) = (   0.5000000   1.3471506   0.0000000), wk =   0.0015432
        k(  683) = (   0.5000000   1.3792256   0.0000000), wk =   0.0015432
        k(  684) = (   0.5000000   1.4113007   0.0000000), wk =   0.0015432
        k(  685) = (   0.5277778   0.3047126   0.0000000), wk =   0.0015432
        k(  686) = (   0.5277778   0.3367877   0.0000000), wk =   0.0015432
        k(  687) = (   0.5277778   0.3688627   0.0000000), wk =   0.0015432
        k(  688) = (   0.5277778   0.4009377   0.0000000), wk =   0.0015432
        k(  689) = (   0.5277778   0.4330127   0.0000000), wk =   0.0015432
        k(  690) = (   0.5277778   0.4650877   0.0000000), wk =   0.0015432
        k(  691) = (   0.5277778   0.4971627   0.0000000), wk =   0.0015432
        k(  692) = (   0.5277778   0.5292377   0.0000000), wk =   0.0015432
        k(  693) = (   0.5277778   0.5613128   0.0000000), wk =   0.0015432
        k(  694) = (   0.5277778   0.5933878   0.0000000), wk =   0.0015432
        k(  695) = (   0.5277778   0.6254628   0.0000000), wk =   0.0015432
        k(  696) = (   0.5277778   0.6575378   0.0000000), wk =   0.0015432
        k(  697) = (   0.5277778   0.6896128   0.0000000), wk =   0.0015432
        k(  698) = (   0.5277778   0.7216878   0.0000000), wk =   0.0015432
        k(  699) = (   0.5277778   0.7537629   0.0000000), wk =   0.0015432
        k(  700) = (   0.5277778   0.7858379   0.0000000), wk =   0.0015432
        k(  701) = (   0.5277778   0.8179129   0.0000000), wk =   0.0015432
        k(  702) = (   0.5277778   0.8499879   0.0000000), wk =   0.0015432
        k(  703) = (   0.5277778   0.8820629   0.0000000), wk =   0.0015432
        k(  704) = (   0.5277778   0.9141379   0.0000000), wk =   0.0015432
        k(  705) = (   0.5277778   0.9462129   0.0000000), wk =   0.0015432
        k(  706) = (   0.5277778   0.9782880   0.0000000), wk =   0.0015432
        k(  707) = (   0.5277778   1.0103630   0.0000000), wk =   0.0015432
        k(  708) = (   0.5277778   1.0424380   0.0000000), wk =   0.0015432
        k(  709) = (   0.5277778   1.0745130   0.0000000), wk =   0.0015432
        k(  710) = (   0.5277778   1.1065880   0.0000000), wk =   0.0015432
        k(  711) = (   0.5277778   1.1386630   0.0000000), wk =   0.0015432
        k(  712) = (   0.5277778   1.1707380   0.0000000), wk =   0.0015432
        k(  713) = (   0.5277778   1.2028131   0.0000000), wk =   0.0015432
        k(  714) = (   0.5277778   1.2348881   0.0000000), wk =   0.0015432
        k(  715) = (   0.5277778   1.2669631   0.0000000), wk =   0.0015432
        k(  716) = (   0.5277778   1.2990381   0.0000000), wk =   0.0015432
        k(  717) = (   0.5277778   1.3311131   0.0000000), wk =   0.0015432
        k(  718) = (   0.5277778   1.3631881   0.0000000), wk =   0.0015432
        k(  719) = (   0.5277778   1.3952631   0.0000000), wk =   0.0015432
        k(  720) = (   0.5277778   1.4273382   0.0000000), wk =   0.0015432
        k(  721) = (   0.5555556   0.3207502   0.0000000), wk =   0.0015432
        k(  722) = (   0.5555556   0.3528252   0.0000000), wk =   0.0015432
        k(  723) = (   0.5555556   0.3849002   0.0000000), wk =   0.0015432
        k(  724) = (   0.5555556   0.4169752   0.0000000), wk =   0.0015432
        k(  725) = (   0.5555556   0.4490502   0.0000000), wk =   0.0015432
        k(  726) = (   0.5555556   0.4811252   0.0000000), wk =   0.0015432
        k(  727) = (   0.5555556   0.5132002   0.0000000), wk =   0.0015432
        k(  728) = (   0.5555556   0.5452753   0.0000000), wk =   0.0015432
        k(  729) = (   0.5555556   0.5773503   0.0000000), wk =   0.0015432
        k(  730) = (   0.5555556   0.6094253   0.0000000), wk =   0.0015432
        k(  731) = (   0.5555556   0.6415003   0.0000000), wk =   0.0015432
        k(  732) = (   0.5555556   0.6735753   0.0000000), wk =   0.0015432
        k(  733) = (   0.5555556   0.7056503   0.0000000), wk =   0.0015432
        k(  734) = (   0.5555556   0.7377253   0.0000000), wk =   0.0015432
        k(  735) = (   0.5555556   0.7698004   0.0000000), wk =   0.0015432
        k(  736) = (   0.5555556   0.8018754   0.0000000), wk =   0.0015432
        k(  737) = (   0.5555556   0.8339504   0.0000000), wk =   0.0015432
        k(  738) = (   0.5555556   0.8660254   0.0000000), wk =   0.0015432
        k(  739) = (   0.5555556   0.8981004   0.0000000), wk =   0.0015432
        k(  740) = (   0.5555556   0.9301754   0.0000000), wk =   0.0015432
        k(  741) = (   0.5555556   0.9622505   0.0000000), wk =   0.0015432
        k(  742) = (   0.5555556   0.9943255   0.0000000), wk =   0.0015432
        k(  743) = (   0.5555556   1.0264005   0.0000000), wk =   0.0015432
        k(  744) = (   0.5555556   1.0584755   0.0000000), wk =   0.0015432
        k(  745) = (   0.5555556   1.0905505   0.0000000), wk =   0.0015432
        k(  746) = (   0.5555556   1.1226255   0.0000000), wk =   0.0015432
        k(  747) = (   0.5555556   1.1547005   0.0000000), wk =   0.0015432
        k(  748) = (   0.5555556   1.1867756   0.0000000), wk =   0.0015432
        k(  749) = (   0.5555556   1.2188506   0.0000000), wk =   0.0015432
        k(  750) = (   0.5555556   1.2509256   0.0000000), wk =   0.0015432
        k(  751) = (   0.5555556   1.2830006   0.0000000), wk =   0.0015432
        k(  752) = (   0.5555556   1.3150756   0.0000000), wk =   0.0015432
        k(  753) = (   0.5555556   1.3471506   0.0000000), wk =   0.0015432
        k(  754) = (   0.5555556   1.3792256   0.0000000), wk =   0.0015432
        k(  755) = (   0.5555556   1.4113007   0.0000000), wk =   0.0015432
        k(  756) = (   0.5555556   1.4433757   0.0000000), wk =   0.0015432
        k(  757) = (   0.5833333   0.3367877   0.0000000), wk =   0.0015432
        k(  758) = (   0.5833333   0.3688627   0.0000000), wk =   0.0015432
        k(  759) = (   0.5833333   0.4009377   0.0000000), wk =   0.0015432
        k(  760) = (   0.5833333   0.4330127   0.0000000), wk =   0.0015432
        k(  761) = (   0.5833333   0.4650877   0.0000000), wk =   0.0015432
        k(  762) = (   0.5833333   0.4971627   0.0000000), wk =   0.0015432
        k(  763) = (   0.5833333   0.5292377   0.0000000), wk =   0.0015432
        k(  764) = (   0.5833333   0.5613128   0.0000000), wk =   0.0015432
        k(  765) = (   0.5833333   0.5933878   0.0000000), wk =   0.0015432
        k(  766) = (   0.5833333   0.6254628   0.0000000), wk =   0.0015432
        k(  767) = (   0.5833333   0.6575378   0.0000000), wk =   0.0015432
        k(  768) = (   0.5833333   0.6896128   0.0000000), wk =   0.0015432
        k(  769) = (   0.5833333   0.7216878   0.0000000), wk =   0.0015432
        k(  770) = (   0.5833333   0.7537628   0.0000000), wk =   0.0015432
        k(  771) = (   0.5833333   0.7858379   0.0000000), wk =   0.0015432
        k(  772) = (   0.5833333   0.8179129   0.0000000), wk =   0.0015432
        k(  773) = (   0.5833333   0.8499879   0.0000000), wk =   0.0015432
        k(  774) = (   0.5833333   0.8820629   0.0000000), wk =   0.0015432
        k(  775) = (   0.5833333   0.9141379   0.0000000), wk =   0.0015432
        k(  776) = (   0.5833333   0.9462129   0.0000000), wk =   0.0015432
        k(  777) = (   0.5833333   0.9782880   0.0000000), wk =   0.0015432
        k(  778) = (   0.5833333   1.0103630   0.0000000), wk =   0.0015432
        k(  779) = (   0.5833333   1.0424380   0.0000000), wk =   0.0015432
        k(  780) = (   0.5833333   1.0745130   0.0000000), wk =   0.0015432
        k(  781) = (   0.5833333   1.1065880   0.0000000), wk =   0.0015432
        k(  782) = (   0.5833333   1.1386630   0.0000000), wk =   0.0015432
        k(  783) = (   0.5833333   1.1707380   0.0000000), wk =   0.0015432
        k(  784) = (   0.5833333   1.2028131   0.0000000), wk =   0.0015432
        k(  785) = (   0.5833333   1.2348881   0.0000000), wk =   0.0015432
        k(  786) = (   0.5833333   1.2669631   0.0000000), wk =   0.0015432
        k(  787) = (   0.5833333   1.2990381   0.0000000), wk =   0.0015432
        k(  788) = (   0.5833333   1.3311131   0.0000000), wk =   0.0015432
        k(  789) = (   0.5833333   1.3631881   0.0000000), wk =   0.0015432
        k(  790) = (   0.5833333   1.3952632   0.0000000), wk =   0.0015432
        k(  791) = (   0.5833333   1.4273382   0.0000000), wk =   0.0015432
        k(  792) = (   0.5833333   1.4594132   0.0000000), wk =   0.0015432
        k(  793) = (   0.6111111   0.3528252   0.0000000), wk =   0.0015432
        k(  794) = (   0.6111111   0.3849002   0.0000000), wk =   0.0015432
        k(  795) = (   0.6111111   0.4169752   0.0000000), wk =   0.0015432
        k(  796) = (   0.6111111   0.4490502   0.0000000), wk =   0.0015432
        k(  797) = (   0.6111111   0.4811252   0.0000000), wk =   0.0015432
        k(  798) = (   0.6111111   0.5132002   0.0000000), wk =   0.0015432
        k(  799) = (   0.6111111   0.5452753   0.0000000), wk =   0.0015432
        k(  800) = (   0.6111111   0.5773503   0.0000000), wk =   0.0015432
        k(  801) = (   0.6111111   0.6094253   0.0000000), wk =   0.0015432
        k(  802) = (   0.6111111   0.6415003   0.0000000), wk =   0.0015432
        k(  803) = (   0.6111111   0.6735753   0.0000000), wk =   0.0015432
        k(  804) = (   0.6111111   0.7056503   0.0000000), wk =   0.0015432
        k(  805) = (   0.6111111   0.7377253   0.0000000), wk =   0.0015432
        k(  806) = (   0.6111111   0.7698004   0.0000000), wk =   0.0015432
        k(  807) = (   0.6111111   0.8018754   0.0000000), wk =   0.0015432
        k(  808) = (   0.6111111   0.8339504   0.0000000), wk =   0.0015432
        k(  809) = (   0.6111111   0.8660254   0.0000000), wk =   0.0015432
        k(  810) = (   0.6111111   0.8981004   0.0000000), wk =   0.0015432
        k(  811) = (   0.6111111   0.9301754   0.0000000), wk =   0.0015432
        k(  812) = (   0.6111111   0.9622505   0.0000000), wk =   0.0015432
        k(  813) = (   0.6111111   0.9943255   0.0000000), wk =   0.0015432
        k(  814) = (   0.6111111   1.0264005   0.0000000), wk =   0.0015432
        k(  815) = (   0.6111111   1.0584755   0.0000000), wk =   0.0015432
        k(  816) = (   0.6111111   1.0905505   0.0000000), wk =   0.0015432
        k(  817) = (   0.6111111   1.1226255   0.0000000), wk =   0.0015432
        k(  818) = (   0.6111111   1.1547005   0.0000000), wk =   0.0015432
        k(  819) = (   0.6111111   1.1867756   0.0000000), wk =   0.0015432
        k(  820) = (   0.6111111   1.2188506   0.0000000), wk =   0.0015432
        k(  821) = (   0.6111111   1.2509256   0.0000000), wk =   0.0015432
        k(  822) = (   0.6111111   1.2830006   0.0000000), wk =   0.0015432
        k(  823) = (   0.6111111   1.3150756   0.0000000), wk =   0.0015432
        k(  824) = (   0.6111111   1.3471506   0.0000000), wk =   0.0015432
        k(  825) = (   0.6111111   1.3792256   0.0000000), wk =   0.0015432
        k(  826) = (   0.6111111   1.4113007   0.0000000), wk =   0.0015432
        k(  827) = (   0.6111111   1.4433757   0.0000000), wk =   0.0015432
        k(  828) = (   0.6111111   1.4754507   0.0000000), wk =   0.0015432
        k(  829) = (   0.6388889   0.3688627   0.0000000), wk =   0.0015432
        k(  830) = (   0.6388889   0.4009377   0.0000000), wk =   0.0015432
        k(  831) = (   0.6388889   0.4330127   0.0000000), wk =   0.0015432
[...]
    -0.0000  -0.0000  -0.0000  -0.0000  -0.0000  -0.0000  -0.0000  -0.0000
    -0.0000  -0.0000  -0.0000  -0.0000  -0.0000  -0.0000  -0.0000  -0.0000
    -0.0000  -0.0000  -0.0000  -0.0000

          k = 0.9722 0.8500 0.0000 (  6453 PWs)   bands (ev):

   -22.4432 -11.3254 -10.2983  -9.2244   0.8312   1.7155   3.3428   3.3993
     3.9542   4.3344   6.9277   8.5167   8.5558  10.7682  11.4817  13.6908
    16.5420  16.9449  18.2080  19.3318  19.9253  20.5038  21.1834  21.9068
    22.9482  23.8016  24.3565  24.9365

     occupation numbers 
     1.0000   1.0000   1.0000   1.0000  -0.0000  -0.0000  -0.0000  -0.0000
    -0.0000  -0.0000  -0.0000  -0.0000  -0.0000  -0.0000  -0.0000  -0.0000
    -0.0000  -0.0000  -0.0000  -0.0000  -0.0000  -0.0000  -0.0000  -0.0000
    -0.0000  -0.0000  -0.0000  -0.0000

          k = 0.9722 0.8821 0.0000 (  6447 PWs)   bands (ev):

   -22.1212 -12.0525  -9.9251  -9.5034   1.2740   2.1161   2.6464   3.7257
     3.9681   4.7687   7.3683   8.9258   9.4244  11.2510  11.9179  13.8133
    16.0054  17.0219  17.3971  18.3525  19.3235  19.4094  20.6893  21.7278
    22.4220  23.3742  24.0107  24.6734

     occupation numbers 
     1.0000   1.0000   1.0000   1.0000  -0.0000  -0.0000  -0.0000  -0.0000
    -0.0000  -0.0000  -0.0000  -0.0000  -0.0000  -0.0000  -0.0000  -0.0000
    -0.0000  -0.0000  -0.0000  -0.0000  -0.0000  -0.0000  -0.0000  -0.0000
    -0.0000  -0.0000  -0.0000  -0.0000

          k = 0.9722 0.9141 0.0000 (  6443 PWs)   bands (ev):

   -21.7653 -12.7862  -9.7620  -9.5175   1.7647   1.7811   2.7119   3.6893
     4.3927   5.2548   7.8569   9.3701  10.2824  11.6791  12.3964  13.7285
    15.6260  15.9784  17.3821  17.7884  18.2709  18.7823  19.9127  21.2547
    22.3191  22.7374  23.7862  24.1337

     occupation numbers 
     1.0000   1.0000   1.0000   1.0000  -0.0000  -0.0000  -0.0000  -0.0000
    -0.0000  -0.0000  -0.0000  -0.0000  -0.0000  -0.0000  -0.0000  -0.0000
    -0.0000  -0.0000  -0.0000  -0.0000  -0.0000  -0.0000  -0.0000  -0.0000
    -0.0000  -0.0000  -0.0000  -0.0000

          k = 0.9722 0.9462 0.0000 (  6430 PWs)   bands (ev):

   -21.3762 -13.5186  -9.9958  -9.0795   1.0293   2.3017   3.2363   3.5950
     4.9301   5.7883   8.3930   9.8410  11.0130  12.0358  12.9145  13.3642
    15.0698  15.2846  16.6672  17.1327  18.2297  18.3041  19.1935  20.3689
    22.0644  22.4956  23.4861  23.7530

     occupation numbers 
     1.0000   1.0000   1.0000   1.0000  -0.0000  -0.0000  -0.0000  -0.0000
    -0.0000  -0.0000  -0.0000  -0.0000  -0.0000  -0.0000  -0.0000  -0.0000
    -0.0000  -0.0000  -0.0000  -0.0000  -0.0000  -0.0000  -0.0000  -0.0000
    -0.0000  -0.0000  -0.0000  -0.0000

          k = 0.9722 0.9783 0.0000 (  6422 PWs)   bands (ev):

   -20.9551 -14.2428 -10.2014  -8.6168   0.2713   2.8781   3.5113   3.8234
     5.5229   6.3671   8.9756  10.3187  11.2241  12.5267  12.7852  13.4707
    14.3733  14.7311  16.2336  16.2852  17.7664  18.6677  18.7262  19.4617
    21.4274  22.3155  23.1208  23.8011

     occupation numbers 
     1.0000   1.0000   1.0000   1.0000  -0.0000  -0.0000  -0.0000  -0.0000
    -0.0000  -0.0000  -0.0000  -0.0000  -0.0000  -0.0000  -0.0000  -0.0000
    -0.0000  -0.0000  -0.0000  -0.0000  -0.0000  -0.0000  -0.0000  -0.0000
    -0.0000  -0.0000  -0.0000  -0.0000

          k = 0.9722 1.0104 0.0000 (  6429 PWs)   bands (ev):

   -20.5035 -14.9527 -10.3761  -8.1390  -0.4650   3.3320   3.6077   4.4602
     6.1660   6.9889   9.6029  10.7345  10.7811  12.1212  13.1484  13.7849
    14.0586  14.0847  15.6514  15.8900  17.6352  18.2727  18.3961  19.3961
    20.7060  22.0353  22.6443  23.8330

     occupation numbers 
     1.0000   1.0000   1.0000   1.0000  -0.0000  -0.0000  -0.0000  -0.0000
    -0.0000  -0.0000  -0.0000  -0.0000  -0.0000  -0.0000  -0.0000  -0.0000
    -0.0000  -0.0000  -0.0000  -0.0000  -0.0000  -0.0000  -0.0000  -0.0000
    -0.0000  -0.0000  -0.0000  -0.0000

          k = 0.9722 1.0424 0.0000 (  6431 PWs)   bands (ev):

   -20.0245 -15.6421 -10.5180  -7.6616  -1.1562   3.3140   4.2363   5.1437
     6.8578   7.6495  10.0120  10.2870  10.7264  11.7516  12.7800  13.3953
    14.0477  14.7037  15.3220  15.4325  17.7222  17.7607  17.9337  19.7776
    20.1525  21.5248  22.3032  23.6129

     occupation numbers 
     1.0000   1.0000   1.0000   1.0000  -0.0000  -0.0000  -0.0000  -0.0000
    -0.0000  -0.0000  -0.0000  -0.0000  -0.0000  -0.0000  -0.0000  -0.0000
    -0.0000  -0.0000  -0.0000  -0.0000  -0.0000  -0.0000  -0.0000  -0.0000
    -0.0000  -0.0000  -0.0000  -0.0000

          k = 0.9722 1.0745 0.0000 (  6432 PWs)   bands (ev):

   -19.5243 -16.3022 -10.6256  -7.2122  -1.7699   3.2655   4.9569   5.8714
     7.5968   8.3377   9.1557  10.0534  10.9908  11.7966  11.9035  12.8901
    14.4409  15.0434  15.0739  15.3807  17.4145  17.4849  17.8646  19.8863
    19.9530  21.1086  22.1398  23.2445

     occupation numbers 
     1.0000   1.0000   1.0000   1.0000  -0.0000  -0.0000  -0.0000  -0.0000
    -0.0000  -0.0000  -0.0000  -0.0000  -0.0000  -0.0000  -0.0000  -0.0000
    -0.0000  -0.0000  -0.0000  -0.0000  -0.0000  -0.0000  -0.0000  -0.0000
    -0.0000  -0.0000  -0.0000  -0.0000

          k = 0.9722 1.1066 0.0000 (  6443 PWs)   bands (ev):

   -19.0211 -16.9129 -10.6979  -6.8394  -2.2542   3.2300   5.7252   6.6391
     8.2530   8.3977   8.9157   9.3555  10.9845  11.4161  11.7414  12.8576
    14.0255  14.8770  15.2670  16.0087  17.0704  17.2872  17.8588  19.5269
    20.1054  21.1117  22.0659  22.7276

     occupation numbers 
     1.0000   1.0000   1.0000   1.0000  -0.0000  -0.0000  -0.0000  -0.0000
    -0.0000  -0.0000  -0.0000  -0.0000  -0.0000  -0.0000  -0.0000  -0.0000
    -0.0000  -0.0000  -0.0000  -0.0000  -0.0000  -0.0000  -0.0000  -0.0000
    -0.0000  -0.0000  -0.0000  -0.0000

          k = 0.9722 1.1387 0.0000 (  6434 PWs)   bands (ev):

   -18.5980 -17.3900 -10.7342  -6.6176  -2.5323   3.2118   6.5319   7.3939
     7.4327   8.2999   9.2139   9.8227  10.0843  10.7769  12.5123  12.9891
    13.2996  14.8187  15.4826  16.5226  16.7744  17.1687  17.8356  19.1683
    20.3516  21.1927  22.0458  22.3117

     occupation numbers 
     1.0000   1.0000   1.0000   1.0000  -0.0000  -0.0000  -0.0000  -0.0000
    -0.0000  -0.0000  -0.0000  -0.0000  -0.0000  -0.0000  -0.0000  -0.0000
    -0.0000  -0.0000  -0.0000  -0.0000  -0.0000  -0.0000  -0.0000  -0.0000
    -0.0000  -0.0000  -0.0000  -0.0000

          k = 0.9722 1.1707 0.0000 (  6434 PWs)   bands (ev):

   -18.5980 -17.3900 -10.7342  -6.6176  -2.5323   3.2118   6.5319   7.3939
     7.4327   8.2999   9.2139   9.8227  10.0843  10.7769  12.5123  12.9891
    13.2996  14.8187  15.4826  16.5226  16.7744  17.1687  17.8356  19.1683
    20.3516  21.1927  22.0458  22.3117

     occupation numbers 
     1.0000   1.0000   1.0000   1.0000  -0.0000  -0.0000  -0.0000  -0.0000
    -0.0000  -0.0000  -0.0000  -0.0000  -0.0000  -0.0000  -0.0000  -0.0000
    -0.0000  -0.0000  -0.0000  -0.0000  -0.0000  -0.0000  -0.0000  -0.0000
    -0.0000  -0.0000  -0.0000  -0.0000

          k = 0.9722 1.2028 0.0000 (  6443 PWs)   bands (ev):

   -19.0211 -16.9129 -10.6979  -6.8394  -2.2542   3.2300   5.7252   6.6391
     8.2530   8.3977   8.9157   9.3555  10.9845  11.4161  11.7414  12.8576
    14.0255  14.8770  15.2670  16.0087  17.0704  17.2872  17.8588  19.5269
    20.1054  21.1117  22.0659  22.7276

     occupation numbers 
     1.0000   1.0000   1.0000   1.0000  -0.0000  -0.0000  -0.0000  -0.0000
    -0.0000  -0.0000  -0.0000  -0.0000  -0.0000  -0.0000  -0.0000  -0.0000
    -0.0000  -0.0000  -0.0000  -0.0000  -0.0000  -0.0000  -0.0000  -0.0000
    -0.0000  -0.0000  -0.0000  -0.0000

          k = 0.9722 1.2349 0.0000 (  6432 PWs)   bands (ev):

   -19.5243 -16.3022 -10.6256  -7.2122  -1.7699   3.2655   4.9569   5.8714
     7.5968   8.3377   9.1557  10.0534  10.9908  11.7966  11.9035  12.8901
    14.4409  15.0434  15.0739  15.3807  17.4145  17.4849  17.8646  19.8863
    19.9530  21.1086  22.1398  23.2445

     occupation numbers 
     1.0000   1.0000   1.0000   1.0000  -0.0000  -0.0000  -0.0000  -0.0000
    -0.0000  -0.0000  -0.0000  -0.0000  -0.0000  -0.0000  -0.0000  -0.0000
    -0.0000  -0.0000  -0.0000  -0.0000  -0.0000  -0.0000  -0.0000  -0.0000
    -0.0000  -0.0000  -0.0000  -0.0000

          k = 0.9722 1.2670 0.0000 (  6431 PWs)   bands (ev):

   -20.0245 -15.6421 -10.5180  -7.6616  -1.1562   3.3140   4.2363   5.1437
     6.8578   7.6495  10.0120  10.2870  10.7264  11.7516  12.7800  13.3953
    14.0477  14.7037  15.3220  15.4325  17.7222  17.7607  17.9337  19.7776
    20.1525  21.5248  22.3032  23.6129

     occupation numbers 
     1.0000   1.0000   1.0000   1.0000  -0.0000  -0.0000  -0.0000  -0.0000
    -0.0000  -0.0000  -0.0000  -0.0000  -0.0000  -0.0000  -0.0000  -0.0000
    -0.0000  -0.0000  -0.0000  -0.0000  -0.0000  -0.0000  -0.0000  -0.0000
    -0.0000  -0.0000  -0.0000  -0.0000

          k = 0.9722 1.2990 0.0000 (  6429 PWs)   bands (ev):

   -20.5035 -14.9527 -10.3761  -8.1390  -0.4650   3.3320   3.6077   4.4602
     6.1660   6.9889   9.6029  10.7345  10.7811  12.1212  13.1484  13.7849
    14.0586  14.0847  15.6514  15.8900  17.6352  18.2727  18.3961  19.3961
    20.7060  22.0353  22.6443  23.8330

     occupation numbers 
     1.0000   1.0000   1.0000   1.0000  -0.0000  -0.0000  -0.0000  -0.0000
    -0.0000  -0.0000  -0.0000  -0.0000  -0.0000  -0.0000  -0.0000  -0.0000
    -0.0000  -0.0000  -0.0000  -0.0000  -0.0000  -0.0000  -0.0000  -0.0000
    -0.0000  -0.0000  -0.0000  -0.0000

          k = 0.9722 1.3311 0.0000 (  6422 PWs)   bands (ev):

   -20.9551 -14.2428 -10.2014  -8.6168   0.2713   2.8781   3.5113   3.8234
     5.5229   6.3671   8.9756  10.3187  11.2241  12.5267  12.7852  13.4707
    14.3733  14.7311  16.2336  16.2852  17.7664  18.6677  18.7262  19.4617
    21.4274  22.3155  23.1208  23.8011

     occupation numbers 
     1.0000   1.0000   1.0000   1.0000  -0.0000  -0.0000  -0.0000  -0.0000
    -0.0000  -0.0000  -0.0000  -0.0000  -0.0000  -0.0000  -0.0000  -0.0000
    -0.0000  -0.0000  -0.0000  -0.0000  -0.0000  -0.0000  -0.0000  -0.0000
    -0.0000  -0.0000  -0.0000  -0.0000

          k = 0.9722 1.3632 0.0000 (  6430 PWs)   bands (ev):

   -21.3762 -13.5186  -9.9958  -9.0795   1.0293   2.3017   3.2363   3.5950
     4.9301   5.7883   8.3930   9.8410  11.0130  12.0358  12.9145  13.3642
    15.0698  15.2846  16.6672  17.1327  18.2297  18.3041  19.1935  20.3689
    22.0644  22.4956  23.4861  23.7530

     occupation numbers 
     1.0000   1.0000   1.0000   1.0000  -0.0000  -0.0000  -0.0000  -0.0000
    -0.0000  -0.0000  -0.0000  -0.0000  -0.0000  -0.0000  -0.0000  -0.0000
    -0.0000  -0.0000  -0.0000  -0.0000  -0.0000  -0.0000  -0.0000  -0.0000
    -0.0000  -0.0000  -0.0000  -0.0000

          k = 0.9722 1.3953 0.0000 (  6443 PWs)   bands (ev):

   -21.7653 -12.7862  -9.7620  -9.5175   1.7647   1.7811   2.7119   3.6893
     4.3927   5.2548   7.8569   9.3701  10.2824  11.6791  12.3964  13.7285
    15.6260  15.9784  17.3821  17.7884  18.2709  18.7823  19.9127  21.2547
    22.3191  22.7374  23.7862  24.1337

     occupation numbers 
     1.0000   1.0000   1.0000   1.0000  -0.0000  -0.0000  -0.0000  -0.0000
    -0.0000  -0.0000  -0.0000  -0.0000  -0.0000  -0.0000  -0.0000  -0.0000
    -0.0000  -0.0000  -0.0000  -0.0000  -0.0000  -0.0000  -0.0000  -0.0000
    -0.0000  -0.0000  -0.0000  -0.0000

          k = 0.9722 1.4273 0.0000 (  6447 PWs)   bands (ev):

   -22.1212 -12.0525  -9.9251  -9.5034   1.2740   2.1161   2.6464   3.7257
     3.9681   4.7687   7.3683   8.9258   9.4244  11.2510  11.9179  13.8133
    16.0054  17.0219  17.3971  18.3525  19.3235  19.4094  20.6893  21.7278
    22.4220  23.3742  24.0107  24.6734

     occupation numbers 
     1.0000   1.0000   1.0000   1.0000  -0.0000  -0.0000  -0.0000  -0.0000
    -0.0000  -0.0000  -0.0000  -0.0000  -0.0000  -0.0000  -0.0000  -0.0000
    -0.0000  -0.0000  -0.0000  -0.0000  -0.0000  -0.0000  -0.0000  -0.0000
    -0.0000  -0.0000  -0.0000  -0.0000

          k = 0.9722 1.4594 0.0000 (  6453 PWs)   bands (ev):

   -22.4432 -11.3254 -10.2983  -9.2244   0.8312   1.7155   3.3428   3.3993
     3.9542   4.3344   6.9277   8.5167   8.5558  10.7682  11.4817  13.6908
    16.5420  16.9449  18.2080  19.3318  19.9253  20.5038  21.1834  21.9068
    22.9482  23.8016  24.3565  24.9365

     occupation numbers 
     1.0000   1.0000   1.0000   1.0000  -0.0000  -0.0000  -0.0000  -0.0000
    -0.0000  -0.0000  -0.0000  -0.0000  -0.0000  -0.0000  -0.0000  -0.0000
    -0.0000  -0.0000  -0.0000  -0.0000  -0.0000  -0.0000  -0.0000  -0.0000
    -0.0000  -0.0000  -0.0000  -0.0000

          k = 0.9722 1.4915 0.0000 (  6471 PWs)   bands (ev):

   -22.7306 -10.6344 -10.6145  -8.9307   0.4370   1.3249   3.0131   3.8692
     4.0404   4.1262   6.5354   7.7146   8.1476  10.2710  11.0911  13.4782
    16.5793  17.1861  19.2631  20.0761  20.4882  21.1182  21.6818  22.5761
    23.4342  23.9556  25.0396  25.8041

     occupation numbers 
     1.0000   1.0000   1.0000   1.0000  -0.0000  -0.0000  -0.0000  -0.0000
    -0.0000  -0.0000  -0.0000  -0.0000  -0.0000  -0.0000  -0.0000  -0.0000
    -0.0000  -0.0000  -0.0000  -0.0000  -0.0000  -0.0000  -0.0000  -0.0000
    -0.0000  -0.0000  -0.0000  -0.0000

          k = 0.9722 1.5236 0.0000 (  6472 PWs)   bands (ev):

   -22.9829 -10.9315  -9.9317  -8.6298   0.0917   0.9791   2.6680   3.5746
     4.1173   4.7479   6.1913   6.9227   7.8212   9.7908  10.7480  13.2440
    16.2521  17.8718  19.7873  20.5981  20.7185  21.7161  22.7676  23.0467
    23.8560  25.0685  25.5986  26.2610

     occupation numbers 
     1.0000   1.0000   1.0000   1.0000  -0.0000  -0.0000  -0.0000  -0.0000
    -0.0000  -0.0000  -0.0000  -0.0000  -0.0000  -0.0000  -0.0000  -0.0000
    -0.0000  -0.0000  -0.0000  -0.0000  -0.0000  -0.0000  -0.0000  -0.0000
    -0.0000  -0.0000  -0.0000  -0.0000

          k = 0.9722 1.5556 0.0000 (  6483 PWs)   bands (ev):

   -23.1997 -11.1881  -9.2912  -8.3310  -0.2045   0.6814   2.3707   3.2832
     4.1699   5.3589   5.8953   6.1983   7.5393   9.3528  10.4532  13.0199
    15.9682  18.5046  19.6505  20.7142  21.2932  22.7048  22.9216  24.1164
    25.2634  25.7089  26.1955  27.0347

     occupation numbers 
     1.0000   1.0000   1.0000   1.0000  -0.0000  -0.0000  -0.0000  -0.0000
    -0.0000  -0.0000  -0.0000  -0.0000  -0.0000  -0.0000  -0.0000  -0.0000
    -0.0000  -0.0000  -0.0000  -0.0000  -0.0000  -0.0000  -0.0000  -0.0000
    -0.0000  -0.0000  -0.0000  -0.0000

          k = 0.9722 1.5877 0.0000 (  6491 PWs)   bands (ev):

   -23.3809 -11.4033  -8.7102  -8.0458  -0.4514   0.4328   2.1224   3.0379
     4.1909   5.5559   5.6493   5.9018   7.3030   8.9774  10.2069  12.8212
    15.7293  18.9353  19.3052  21.0508  21.8999  22.4902  24.2855  25.4155
    25.8562  26.6667  26.9328  27.9135

     occupation numbers 
     1.0000   1.0000   1.0000   1.0000  -0.0000  -0.0000  -0.0000  -0.0000
    -0.0000  -0.0000  -0.0000  -0.0000  -0.0000  -0.0000  -0.0000  -0.0000
    -0.0000  -0.0000  -0.0000  -0.0000  -0.0000  -0.0000  -0.0000  -0.0000
    -0.0000  -0.0000  -0.0000  -0.0000

          k = 0.9722 1.6198 0.0000 (  6503 PWs)   bands (ev):

   -23.5261 -11.5763  -8.2080  -7.7885  -0.6490   0.2336   1.9236   2.8410
     4.1800   5.0175   5.4482   6.3601   7.1132   8.6786  10.0094  12.6562
    15.5367  18.9417  19.1055  21.6983  22.2955  22.5099  25.4528  25.7801
    27.1431  27.4770  28.1973  28.3717

     occupation numbers 
     1.0000   1.0000   1.0000   1.0000  -0.0000  -0.0000  -0.0000  -0.0000
    -0.0000  -0.0000  -0.0000  -0.0000  -0.0000  -0.0000  -0.0000  -0.0000
    -0.0000  -0.0000  -0.0000  -0.0000  -0.0000  -0.0000  -0.0000  -0.0000
    -0.0000  -0.0000  -0.0000  -0.0000

          k = 0.9722 1.6519 0.0000 (  6501 PWs)   bands (ev):

   -23.6351 -11.7064  -7.8056  -7.5747  -0.7972   0.0840   1.7745   2.6931
     4.1459   4.5950   5.2965   6.7194   6.9705   8.4620   9.8609  12.5293
    15.3911  18.6295  19.1302  22.1505  22.5044  23.0842  25.3419  27.3258
    28.0033  28.2275  28.7157  28.8928

     occupation numbers 
     1.0000   1.0000   1.0000   1.0000  -0.0000  -0.0000  -0.0000  -0.0000
    -0.0000  -0.0000  -0.0000  -0.0000  -0.0000  -0.0000  -0.0000  -0.0000
    -0.0000  -0.0000  -0.0000  -0.0000  -0.0000  -0.0000  -0.0000  -0.0000
    -0.0000  -0.0000  -0.0000  -0.0000

          k = 0.9722 1.6839 0.0000 (  6497 PWs)   bands (ev):

   -23.7079 -11.7934  -7.5232  -7.4206  -0.8960  -0.0157   1.6751   2.5943
     4.1062   4.3033   5.1945   6.8751   6.9672   8.3245   9.7616  12.4433
    15.2934  18.4044  19.1116  22.0545  23.2677  23.5346  25.3961  27.8755
    28.0166  28.7935  29.1158  30.2765

     occupation numbers 
     1.0000   1.0000   1.0000   1.0000  -0.0000  -0.0000  -0.0000  -0.0000
    -0.0000  -0.0000  -0.0000  -0.0000  -0.0000  -0.0000  -0.0000  -0.0000
    -0.0000  -0.0000  -0.0000  -0.0000  -0.0000  -0.0000  -0.0000  -0.0000
    -0.0000  -0.0000  -0.0000  -0.0000

     the Fermi energy is    -4.2448 ev
     (compare with:    -4.2448 eV, computed in scf)

     Writing all to output data dir ./graphene.save/
 
     init_run     :      1.57s CPU      2.33s WALL (       1 calls)
     electrons    :    316.05s CPU    385.19s WALL (       1 calls)

     Called by init_run:
     wfcinit      :      0.00s CPU      0.01s WALL (       1 calls)
     wfcinit:atom :      0.05s CPU      0.08s WALL (     186 calls)
     wfcinit:wfcr :      6.04s CPU     24.05s WALL (     186 calls)
     potinit      :      0.66s CPU      0.98s WALL (       1 calls)
     hinit0       :      0.34s CPU      0.46s WALL (       1 calls)

     Called by electrons:
     c_bands      :    315.94s CPU    385.03s WALL (       1 calls)
     v_of_rho     :      0.04s CPU      0.05s WALL (       1 calls)
     v_h          :      0.00s CPU      0.00s WALL (       1 calls)
     v_xc         :      0.03s CPU      0.05s WALL (       1 calls)
     newd         :      0.07s CPU      0.07s WALL (       1 calls)
     PAW_pot      :      0.50s CPU      0.69s WALL (       1 calls)

     Called by c_bands:
     init_us_2    :      0.14s CPU      0.17s WALL (     186 calls)
     init_us_2:cp :      0.14s CPU      0.17s WALL (     186 calls)
     cegterg      :    175.25s CPU    215.22s WALL (     606 calls)

     Called by sum_band:

     Called by *egterg:
     cdiaghg      :     16.06s CPU     20.10s WALL (   10544 calls)
     cegterg:over :     14.38s CPU     16.13s WALL (   10358 calls)
     cegterg:upda :     10.28s CPU     11.92s WALL (   10358 calls)
     cegterg:last :     24.92s CPU     27.99s WALL (    4938 calls)
     cdiaghg:chol :      1.32s CPU      1.47s WALL (   10544 calls)
     cdiaghg:inve :      0.31s CPU      0.43s WALL (   10544 calls)
     cdiaghg:para :      1.85s CPU      2.10s WALL (   21088 calls)
     h_psi        :    108.28s CPU    154.12s WALL (   11150 calls)
     s_psi        :      1.40s CPU      1.64s WALL (   11150 calls)
     g_psi        :      1.47s CPU      1.73s WALL (   10358 calls)

     Called by h_psi:
     h_psi:calbec :      4.38s CPU      5.15s WALL (   11150 calls)
     vloc_psi     :     98.29s CPU    142.22s WALL (   11150 calls)
     add_vuspsi   :      3.87s CPU      4.59s WALL (   11150 calls)

     General routines
     calbec       :      4.35s CPU      5.08s WALL (   11150 calls)
     fft          :      0.05s CPU      0.18s WALL (      13 calls)
     ffts         :      0.03s CPU      0.05s WALL (       1 calls)
     fftw         :     83.86s CPU    119.98s WALL (  288488 calls)
     interpolate  :      0.04s CPU      0.07s WALL (       1 calls)
     davcio       :      0.08s CPU      2.30s WALL (     372 calls)
 
     Parallel routines

     PAW routines
     PAW_pot      :      0.50s CPU      0.69s WALL (       1 calls)
 
     PWSCF        :   5m19.30s CPU   7m23.60s WALL

 
   This run was terminated on:  23:50:39  24Jun2022            

=------------------------------------------------------------------------------=
   JOB DONE.
=------------------------------------------------------------------------------=
