
     Program PWSCF v.7.0 starts on 10Jun2022 at 22:44:21 

     This program is part of the open-source Quantum ESPRESSO suite
     for quantum simulation of materials; please cite
         "P. Giannozzi et al., J. Phys.:Condens. Matter 21 395502 (2009);
         "P. Giannozzi et al., J. Phys.:Condens. Matter 29 465901 (2017);
         "P. Giannozzi et al., J. Chem. Phys. 152 154105 (2020);
          URL http://www.quantum-espresso.org", 
     in publications or presentations arising from this work. More details at
     http://www.quantum-espresso.org/quote

     Parallel version (MPI & OpenMP), running on      28 processor cores
     Number of MPI processes:                28
     Threads/MPI process:                     1

     MPI processes distributed on     1 nodes
     K-points division:     npool     =       7
     R & G space division:  proc/nbgrp/npool/nimage =       4
     55047 MiB available memory on the printing compute node when the environment starts
 
     Waiting for input...
     Reading input from standard input
Warning: card &IONS ignored
Warning: card     ION_DYNAMICS = "BFGS" ignored
Warning: card / ignored
Warning: card &CELL ignored
Warning: card     CELL_DOFREE    = "IBRAV+2DXY" ignored
Warning: card     CELL_DYNAMICS  = "BFGS" ignored
Warning: card     PRESS_CONV_THR =  0.01 ignored
Warning: card / ignored

     Current dimensions of program PWSCF are:
     Max number of different atomic species (ntypx) = 10
     Max number of k-points (npk) =  40000
     Max angular momentum in pseudopotentials (lmaxx) =  4
     Message from routine iosys:
     wrong startingpot: use default (2)

     Atomic positions and unit cell read from directory:
     ./graphene.save/
     Atomic positions from file used, from input discarded
 
     file C.pbe-n-kjpaw_psl.1.0.0.UPF: wavefunction(s)  2S 2P renormalized

     Subspace diagonalization in iterative solution of the eigenvalue problem:
     one sub-group per band group will be used
     scalapack distributed-memory algorithm (size of sub-group:  2*  2 procs)

 
     Parallelization info
     --------------------
     sticks:   dense  smooth     PW     G-vecs:    dense   smooth      PW
     Min         136      65     30                15384     5409    1724
     Max         137      67     31                15389     5425    1751
     Sum         547     265    121                61545    21673    6935
 
     Using Slab Decomposition
 


     bravais-lattice index     =            4
     lattice parameter (alat)  =       4.6620  a.u.
     unit-cell volume          =     533.5420 (a.u.)^3
     number of atoms/cell      =            2
     number of atomic types    =            1
     number of electrons       =         8.00
     number of Kohn-Sham states=           56
     kinetic-energy cutoff     =      45.0000  Ry
     charge density cutoff     =     360.0000  Ry
     Exchange-correlation= SLA  PW   PBX  PBC
                           (   1   4   3   4   0   0   0)

     celldm(1)=   4.662018  celldm(2)=   0.000000  celldm(3)=   6.080177
     celldm(4)=   0.000000  celldm(5)=   0.000000  celldm(6)=   0.000000

     crystal axes: (cart. coord. in units of alat)
               a(1) = (   1.000000   0.000000   0.000000 )  
               a(2) = (  -0.500000   0.866025   0.000000 )  
               a(3) = (   0.000000   0.000000   6.080177 )  

     reciprocal axes: (cart. coord. in units 2 pi/alat)
               b(1) = (  1.000000  0.577350  0.000000 )  
               b(2) = (  0.000000  1.154701  0.000000 )  
               b(3) = (  0.000000  0.000000  0.164469 )  

Write cell and positions for Wanner90.x
begin unit_cell_cart
Bohr
        4.6620178   0.0000000   0.0000000
       -2.3310089   4.0374259   0.0000000
        0.0000000   0.0000000  28.3458919
end unit_cell_cart

begin atoms_cart
Bohr
        C          -0.0000000   2.6916173  14.1729459
        C           2.3310089   1.3458086  14.1729459
end atoms_cart

     PseudoPot. # 1 for C  read from file:
     ./pseudo/C.pbe-n-kjpaw_psl.1.0.0.UPF
     MD5 check sum: 6fec8efd722f5d988670a8dc528584a2
     Pseudo is Projector augmented-wave + core cor, Zval =  4.0
     Generated using "atomic" code by A. Dal Corso  v.5.1.2
     Shape of augmentation charge: PSQ
     Using radial grid of 1073 points,  4 beta functions with: 
                l(1) =   0
                l(2) =   0
                l(3) =   1
                l(4) =   1
     Q(r) pseudized with 0 coefficients 


     atomic species   valence    mass     pseudopotential
        C              4.00    12.01070     C ( 1.00)

     24 Sym. Ops., with inversion, found


                                    s                        frac. trans.

      isym =  1     identity                                     

 cryst.   s( 1) = (     1          0          0      )
                  (     0          1          0      )
                  (     0          0          1      )

 cart.    s( 1) = (  1.0000000  0.0000000  0.0000000 )
                  (  0.0000000  1.0000000  0.0000000 )
                  (  0.0000000  0.0000000  1.0000000 )


      isym =  2     180 deg rotation - cart. axis [0,0,1]        

 cryst.   s( 2) = (    -1          0          0      )
                  (     0         -1          0      )
                  (     0          0          1      )

 cart.    s( 2) = ( -1.0000000  0.0000000  0.0000000 )
                  (  0.0000000 -1.0000000  0.0000000 )
                  (  0.0000000  0.0000000  1.0000000 )


      isym =  3     180 deg rotation - cart. axis [0,1,0]        

 cryst.   s( 3) = (    -1          0          0      )
                  (     1          1          0      )
                  (     0          0         -1      )

 cart.    s( 3) = ( -1.0000000  0.0000000  0.0000000 )
                  (  0.0000000  1.0000000  0.0000000 )
                  (  0.0000000  0.0000000 -1.0000000 )


      isym =  4     180 deg rotation - cart. axis [1,0,0]        

 cryst.   s( 4) = (     1          0          0      )
                  (    -1         -1          0      )
                  (     0          0         -1      )

 cart.    s( 4) = (  1.0000000  0.0000000  0.0000000 )
                  (  0.0000000 -1.0000000  0.0000000 )
                  (  0.0000000  0.0000000 -1.0000000 )


      isym =  5      60 deg rotation - cryst. axis [0,0,1]       

 cryst.   s( 5) = (     1          1          0      )
                  (    -1          0          0      )
                  (     0          0          1      )

 cart.    s( 5) = (  0.5000000 -0.8660254  0.0000000 )
                  (  0.8660254  0.5000000  0.0000000 )
                  (  0.0000000  0.0000000  1.0000000 )


      isym =  6      60 deg rotation - cryst. axis [0,0,-1]      

 cryst.   s( 6) = (     0         -1          0      )
                  (     1          1          0      )
                  (     0          0          1      )

 cart.    s( 6) = (  0.5000000  0.8660254  0.0000000 )
                  ( -0.8660254  0.5000000  0.0000000 )
                  (  0.0000000  0.0000000  1.0000000 )


      isym =  7     120 deg rotation - cryst. axis [0,0,1]       

 cryst.   s( 7) = (     0          1          0      )
                  (    -1         -1          0      )
                  (     0          0          1      )

 cart.    s( 7) = ( -0.5000000 -0.8660254  0.0000000 )
                  (  0.8660254 -0.5000000  0.0000000 )
                  (  0.0000000  0.0000000  1.0000000 )


      isym =  8     120 deg rotation - cryst. axis [0,0,-1]      

 cryst.   s( 8) = (    -1         -1          0      )
                  (     1          0          0      )
                  (     0          0          1      )

 cart.    s( 8) = ( -0.5000000  0.8660254  0.0000000 )
                  ( -0.8660254 -0.5000000  0.0000000 )
                  (  0.0000000  0.0000000  1.0000000 )


      isym =  9     180 deg rotation - cryst. axis [1,-1,0]      

 cryst.   s( 9) = (     0         -1          0      )
                  (    -1          0          0      )
                  (     0          0         -1      )

 cart.    s( 9) = (  0.5000000 -0.8660254  0.0000000 )
                  ( -0.8660254 -0.5000000  0.0000000 )
                  (  0.0000000  0.0000000 -1.0000000 )


      isym = 10     180 deg rotation - cryst. axis [2,1,0]       

 cryst.   s(10) = (     1          1          0      )
                  (     0         -1          0      )
                  (     0          0         -1      )

 cart.    s(10) = (  0.5000000  0.8660254  0.0000000 )
                  (  0.8660254 -0.5000000  0.0000000 )
                  (  0.0000000  0.0000000 -1.0000000 )


      isym = 11     180 deg rotation - cryst. axis [0,1,0]       

 cryst.   s(11) = (    -1         -1          0      )
                  (     0          1          0      )
                  (     0          0         -1      )

 cart.    s(11) = ( -0.5000000 -0.8660254  0.0000000 )
                  ( -0.8660254  0.5000000  0.0000000 )
                  (  0.0000000  0.0000000 -1.0000000 )


      isym = 12     180 deg rotation - cryst. axis [1,1,0]       

 cryst.   s(12) = (     0          1          0      )
                  (     1          0          0      )
                  (     0          0         -1      )

 cart.    s(12) = ( -0.5000000  0.8660254  0.0000000 )
                  (  0.8660254  0.5000000  0.0000000 )
                  (  0.0000000  0.0000000 -1.0000000 )


      isym = 13     inversion                                    

 cryst.   s(13) = (    -1          0          0      )
                  (     0         -1          0      )
                  (     0          0         -1      )

 cart.    s(13) = ( -1.0000000  0.0000000  0.0000000 )
                  (  0.0000000 -1.0000000  0.0000000 )
                  (  0.0000000  0.0000000 -1.0000000 )


      isym = 14     inv. 180 deg rotation - cart. axis [0,0,1]   

 cryst.   s(14) = (     1          0          0      )
                  (     0          1          0      )
                  (     0          0         -1      )

 cart.    s(14) = (  1.0000000  0.0000000  0.0000000 )
                  (  0.0000000  1.0000000  0.0000000 )
                  (  0.0000000  0.0000000 -1.0000000 )


      isym = 15     inv. 180 deg rotation - cart. axis [0,1,0]   

 cryst.   s(15) = (     1          0          0      )
                  (    -1         -1          0      )
                  (     0          0          1      )

 cart.    s(15) = (  1.0000000  0.0000000  0.0000000 )
                  (  0.0000000 -1.0000000  0.0000000 )
                  (  0.0000000  0.0000000  1.0000000 )


      isym = 16     inv. 180 deg rotation - cart. axis [1,0,0]   

 cryst.   s(16) = (    -1          0          0      )
                  (     1          1          0      )
                  (     0          0          1      )

 cart.    s(16) = ( -1.0000000  0.0000000  0.0000000 )
                  (  0.0000000  1.0000000  0.0000000 )
                  (  0.0000000  0.0000000  1.0000000 )


      isym = 17     inv.  60 deg rotation - cryst. axis [0,0,1]  

 cryst.   s(17) = (    -1         -1          0      )
                  (     1          0          0      )
                  (     0          0         -1      )

 cart.    s(17) = ( -0.5000000  0.8660254  0.0000000 )
                  ( -0.8660254 -0.5000000  0.0000000 )
                  (  0.0000000  0.0000000 -1.0000000 )


      isym = 18     inv.  60 deg rotation - cryst. axis [0,0,-1] 

 cryst.   s(18) = (     0          1          0      )
                  (    -1         -1          0      )
                  (     0          0         -1      )

 cart.    s(18) = ( -0.5000000 -0.8660254  0.0000000 )
                  (  0.8660254 -0.5000000  0.0000000 )
                  (  0.0000000  0.0000000 -1.0000000 )


      isym = 19     inv. 120 deg rotation - cryst. axis [0,0,1]  

 cryst.   s(19) = (     0         -1          0      )
                  (     1          1          0      )
                  (     0          0         -1      )

 cart.    s(19) = (  0.5000000  0.8660254  0.0000000 )
                  ( -0.8660254  0.5000000  0.0000000 )
                  (  0.0000000  0.0000000 -1.0000000 )


      isym = 20     inv. 120 deg rotation - cryst. axis [0,0,-1] 

 cryst.   s(20) = (     1          1          0      )
                  (    -1          0          0      )
                  (     0          0         -1      )

 cart.    s(20) = (  0.5000000 -0.8660254  0.0000000 )
                  (  0.8660254  0.5000000  0.0000000 )
                  (  0.0000000  0.0000000 -1.0000000 )


      isym = 21     inv. 180 deg rotation - cryst. axis [1,-1,0] 

 cryst.   s(21) = (     0          1          0      )
                  (     1          0          0      )
                  (     0          0          1      )

 cart.    s(21) = ( -0.5000000  0.8660254  0.0000000 )
                  (  0.8660254  0.5000000  0.0000000 )
                  (  0.0000000  0.0000000  1.0000000 )


      isym = 22     inv. 180 deg rotation - cryst. axis [2,1,0]  

 cryst.   s(22) = (    -1         -1          0      )
                  (     0          1          0      )
                  (     0          0          1      )

 cart.    s(22) = ( -0.5000000 -0.8660254  0.0000000 )
                  ( -0.8660254  0.5000000  0.0000000 )
                  (  0.0000000  0.0000000  1.0000000 )


      isym = 23     inv. 180 deg rotation - cryst. axis [0,1,0]  

 cryst.   s(23) = (     1          1          0      )
                  (     0         -1          0      )
                  (     0          0          1      )

 cart.    s(23) = (  0.5000000  0.8660254  0.0000000 )
                  (  0.8660254 -0.5000000  0.0000000 )
                  (  0.0000000  0.0000000  1.0000000 )


      isym = 24     inv. 180 deg rotation - cryst. axis [1,1,0]  

 cryst.   s(24) = (     0         -1          0      )
                  (    -1          0          0      )
                  (     0          0          1      )

 cart.    s(24) = (  0.5000000 -0.8660254  0.0000000 )
                  ( -0.8660254 -0.5000000  0.0000000 )
                  (  0.0000000  0.0000000  1.0000000 )


     point group D_6h(6/mmm)
     there are 12 classes
     the character table:

       E     2C6   2C3   C2    3C2'  3C2'' i     2S3   2S6   s_h   3s_d  3s_v 
A_1g   1.00  1.00  1.00  1.00  1.00  1.00  1.00  1.00  1.00  1.00  1.00  1.00
A_2g   1.00  1.00  1.00  1.00 -1.00 -1.00  1.00  1.00  1.00  1.00 -1.00 -1.00
B_1g   1.00 -1.00  1.00 -1.00  1.00 -1.00  1.00 -1.00  1.00 -1.00  1.00 -1.00
B_2g   1.00 -1.00  1.00 -1.00 -1.00  1.00  1.00 -1.00  1.00 -1.00 -1.00  1.00
E_1g   2.00  1.00 -1.00 -2.00  0.00  0.00  2.00  1.00 -1.00 -2.00  0.00  0.00
E_2g   2.00 -1.00 -1.00  2.00  0.00  0.00  2.00 -1.00 -1.00  2.00  0.00  0.00
A_1u   1.00  1.00  1.00  1.00  1.00  1.00 -1.00 -1.00 -1.00 -1.00 -1.00 -1.00
A_2u   1.00  1.00  1.00  1.00 -1.00 -1.00 -1.00 -1.00 -1.00 -1.00  1.00  1.00
B_1u   1.00 -1.00  1.00 -1.00  1.00 -1.00 -1.00  1.00 -1.00  1.00 -1.00  1.00
B_2u   1.00 -1.00  1.00 -1.00 -1.00  1.00 -1.00  1.00 -1.00  1.00  1.00 -1.00
E_1u   2.00  1.00 -1.00 -2.00  0.00  0.00 -2.00 -1.00  1.00  2.00  0.00  0.00
E_2u   2.00 -1.00 -1.00  2.00  0.00  0.00 -2.00  1.00  1.00 -2.00  0.00  0.00

     the symmetry operations in each class and the name of the first element:

     E        1
          identity                                               
     2C6      5    6
           60 deg rotation - cryst. axis [0,0,1]                 
     2C3      7    8
          120 deg rotation - cryst. axis [0,0,1]                 
     C2       2
          180 deg rotation - cart. axis [0,0,1]                  
     3C2'     4   12   11
          180 deg rotation - cart. axis [1,0,0]                  
     3C2''    3    9   10
          180 deg rotation - cart. axis [0,1,0]                  
     i       13
          inversion                                              
     2S3     17   18
          inv.  60 deg rotation - cryst. axis [0,0,1]            
     2S6     19   20
          inv. 120 deg rotation - cryst. axis [0,0,1]            
     s_h     14
          inv. 180 deg rotation - cart. axis [0,0,1]             
     3s_d    16   24   23
          inv. 180 deg rotation - cart. axis [1,0,0]             
     3s_v    15   21   22
          inv. 180 deg rotation - cart. axis [0,1,0]             

   Cartesian axes

     site n.     atom                  positions (alat units)
         1           C   tau(   1) = (  -0.0000000   0.5773503   3.0400883  )
         2           C   tau(   2) = (   0.5000000   0.2886751   3.0400883  )

   Crystallographic axes

     site n.     atom                  positions (cryst. coord.)
         1           C   tau(   1) = (  0.3333333  0.6666667  0.5000000  )
         2           C   tau(   2) = (  0.6666667  0.3333333  0.5000000  )

     number of k points=   144  Gaussian smearing, width (Ry)=  0.0100
                       cart. coord. in units 2pi/alat
        k(    1) = (   0.0000000   0.0000000   0.0000000), wk =   0.0138889
        k(    2) = (   0.0000000   0.0962250   0.0000000), wk =   0.0138889
        k(    3) = (   0.0000000   0.1924501   0.0000000), wk =   0.0138889
        k(    4) = (   0.0000000   0.2886751   0.0000000), wk =   0.0138889
        k(    5) = (   0.0000000   0.3849002   0.0000000), wk =   0.0138889
        k(    6) = (   0.0000000   0.4811252   0.0000000), wk =   0.0138889
        k(    7) = (   0.0000000   0.5773503   0.0000000), wk =   0.0138889
        k(    8) = (   0.0000000   0.6735753   0.0000000), wk =   0.0138889
        k(    9) = (   0.0000000   0.7698004   0.0000000), wk =   0.0138889
        k(   10) = (   0.0000000   0.8660254   0.0000000), wk =   0.0138889
        k(   11) = (   0.0000000   0.9622504   0.0000000), wk =   0.0138889
        k(   12) = (   0.0000000   1.0584755   0.0000000), wk =   0.0138889
        k(   13) = (   0.0833333   0.0481125   0.0000000), wk =   0.0138889
        k(   14) = (   0.0833333   0.1443376   0.0000000), wk =   0.0138889
        k(   15) = (   0.0833333   0.2405626   0.0000000), wk =   0.0138889
        k(   16) = (   0.0833333   0.3367877   0.0000000), wk =   0.0138889
        k(   17) = (   0.0833333   0.4330127   0.0000000), wk =   0.0138889
        k(   18) = (   0.0833333   0.5292377   0.0000000), wk =   0.0138889
        k(   19) = (   0.0833333   0.6254628   0.0000000), wk =   0.0138889
        k(   20) = (   0.0833333   0.7216878   0.0000000), wk =   0.0138889
        k(   21) = (   0.0833333   0.8179129   0.0000000), wk =   0.0138889
        k(   22) = (   0.0833333   0.9141379   0.0000000), wk =   0.0138889
        k(   23) = (   0.0833333   1.0103630   0.0000000), wk =   0.0138889
        k(   24) = (   0.0833333   1.1065880   0.0000000), wk =   0.0138889
        k(   25) = (   0.1666667   0.0962250   0.0000000), wk =   0.0138889
        k(   26) = (   0.1666667   0.1924501   0.0000000), wk =   0.0138889
        k(   27) = (   0.1666667   0.2886751   0.0000000), wk =   0.0138889
        k(   28) = (   0.1666667   0.3849002   0.0000000), wk =   0.0138889
        k(   29) = (   0.1666667   0.4811252   0.0000000), wk =   0.0138889
        k(   30) = (   0.1666667   0.5773503   0.0000000), wk =   0.0138889
        k(   31) = (   0.1666667   0.6735753   0.0000000), wk =   0.0138889
        k(   32) = (   0.1666667   0.7698004   0.0000000), wk =   0.0138889
        k(   33) = (   0.1666667   0.8660254   0.0000000), wk =   0.0138889
        k(   34) = (   0.1666667   0.9622505   0.0000000), wk =   0.0138889
        k(   35) = (   0.1666667   1.0584755   0.0000000), wk =   0.0138889
        k(   36) = (   0.1666667   1.1547005   0.0000000), wk =   0.0138889
        k(   37) = (   0.2500000   0.1443376   0.0000000), wk =   0.0138889
        k(   38) = (   0.2500000   0.2405626   0.0000000), wk =   0.0138889
        k(   39) = (   0.2500000   0.3367877   0.0000000), wk =   0.0138889
        k(   40) = (   0.2500000   0.4330127   0.0000000), wk =   0.0138889
        k(   41) = (   0.2500000   0.5292377   0.0000000), wk =   0.0138889
        k(   42) = (   0.2500000   0.6254628   0.0000000), wk =   0.0138889
        k(   43) = (   0.2500000   0.7216878   0.0000000), wk =   0.0138889
        k(   44) = (   0.2500000   0.8179129   0.0000000), wk =   0.0138889
        k(   45) = (   0.2500000   0.9141379   0.0000000), wk =   0.0138889
        k(   46) = (   0.2500000   1.0103630   0.0000000), wk =   0.0138889
        k(   47) = (   0.2500000   1.1065880   0.0000000), wk =   0.0138889
        k(   48) = (   0.2500000   1.2028131   0.0000000), wk =   0.0138889
        k(   49) = (   0.3333333   0.1924501   0.0000000), wk =   0.0138889
        k(   50) = (   0.3333333   0.2886751   0.0000000), wk =   0.0138889
        k(   51) = (   0.3333333   0.3849002   0.0000000), wk =   0.0138889
        k(   52) = (   0.3333333   0.4811252   0.0000000), wk =   0.0138889
        k(   53) = (   0.3333333   0.5773503   0.0000000), wk =   0.0138889
        k(   54) = (   0.3333333   0.6735753   0.0000000), wk =   0.0138889
        k(   55) = (   0.3333333   0.7698004   0.0000000), wk =   0.0138889
        k(   56) = (   0.3333333   0.8660254   0.0000000), wk =   0.0138889
        k(   57) = (   0.3333333   0.9622505   0.0000000), wk =   0.0138889
        k(   58) = (   0.3333333   1.0584755   0.0000000), wk =   0.0138889
        k(   59) = (   0.3333333   1.1547005   0.0000000), wk =   0.0138889
        k(   60) = (   0.3333333   1.2509256   0.0000000), wk =   0.0138889
        k(   61) = (   0.4166667   0.2405626   0.0000000), wk =   0.0138889
        k(   62) = (   0.4166667   0.3367877   0.0000000), wk =   0.0138889
        k(   63) = (   0.4166667   0.4330127   0.0000000), wk =   0.0138889
        k(   64) = (   0.4166667   0.5292377   0.0000000), wk =   0.0138889
        k(   65) = (   0.4166667   0.6254628   0.0000000), wk =   0.0138889
        k(   66) = (   0.4166667   0.7216878   0.0000000), wk =   0.0138889
        k(   67) = (   0.4166667   0.8179129   0.0000000), wk =   0.0138889
        k(   68) = (   0.4166667   0.9141379   0.0000000), wk =   0.0138889
        k(   69) = (   0.4166667   1.0103630   0.0000000), wk =   0.0138889
        k(   70) = (   0.4166667   1.1065880   0.0000000), wk =   0.0138889
        k(   71) = (   0.4166667   1.2028131   0.0000000), wk =   0.0138889
        k(   72) = (   0.4166667   1.2990381   0.0000000), wk =   0.0138889
        k(   73) = (   0.5000000   0.2886751   0.0000000), wk =   0.0138889
        k(   74) = (   0.5000000   0.3849002   0.0000000), wk =   0.0138889
        k(   75) = (   0.5000000   0.4811252   0.0000000), wk =   0.0138889
        k(   76) = (   0.5000000   0.5773503   0.0000000), wk =   0.0138889
        k(   77) = (   0.5000000   0.6735753   0.0000000), wk =   0.0138889
        k(   78) = (   0.5000000   0.7698004   0.0000000), wk =   0.0138889
        k(   79) = (   0.5000000   0.8660254   0.0000000), wk =   0.0138889
        k(   80) = (   0.5000000   0.9622504   0.0000000), wk =   0.0138889
        k(   81) = (   0.5000000   1.0584755   0.0000000), wk =   0.0138889
        k(   82) = (   0.5000000   1.1547005   0.0000000), wk =   0.0138889
        k(   83) = (   0.5000000   1.2509256   0.0000000), wk =   0.0138889
        k(   84) = (   0.5000000   1.3471506   0.0000000), wk =   0.0138889
        k(   85) = (   0.5833333   0.3367877   0.0000000), wk =   0.0138889
        k(   86) = (   0.5833333   0.4330127   0.0000000), wk =   0.0138889
        k(   87) = (   0.5833333   0.5292377   0.0000000), wk =   0.0138889
        k(   88) = (   0.5833333   0.6254628   0.0000000), wk =   0.0138889
        k(   89) = (   0.5833333   0.7216878   0.0000000), wk =   0.0138889
        k(   90) = (   0.5833333   0.8179129   0.0000000), wk =   0.0138889
        k(   91) = (   0.5833333   0.9141379   0.0000000), wk =   0.0138889
        k(   92) = (   0.5833333   1.0103630   0.0000000), wk =   0.0138889
        k(   93) = (   0.5833333   1.1065880   0.0000000), wk =   0.0138889
        k(   94) = (   0.5833333   1.2028131   0.0000000), wk =   0.0138889
        k(   95) = (   0.5833333   1.2990381   0.0000000), wk =   0.0138889
        k(   96) = (   0.5833333   1.3952632   0.0000000), wk =   0.0138889
        k(   97) = (   0.6666667   0.3849002   0.0000000), wk =   0.0138889
        k(   98) = (   0.6666667   0.4811252   0.0000000), wk =   0.0138889
        k(   99) = (   0.6666667   0.5773503   0.0000000), wk =   0.0138889
        k(  100) = (   0.6666667   0.6735753   0.0000000), wk =   0.0138889
        k(  101) = (   0.6666667   0.7698004   0.0000000), wk =   0.0138889
        k(  102) = (   0.6666667   0.8660254   0.0000000), wk =   0.0138889
        k(  103) = (   0.6666667   0.9622505   0.0000000), wk =   0.0138889
        k(  104) = (   0.6666667   1.0584755   0.0000000), wk =   0.0138889
        k(  105) = (   0.6666667   1.1547005   0.0000000), wk =   0.0138889
        k(  106) = (   0.6666667   1.2509256   0.0000000), wk =   0.0138889
        k(  107) = (   0.6666667   1.3471506   0.0000000), wk =   0.0138889
        k(  108) = (   0.6666667   1.4433757   0.0000000), wk =   0.0138889
        k(  109) = (   0.7500000   0.4330127   0.0000000), wk =   0.0138889
        k(  110) = (   0.7500000   0.5292377   0.0000000), wk =   0.0138889
        k(  111) = (   0.7500000   0.6254628   0.0000000), wk =   0.0138889
        k(  112) = (   0.7500000   0.7216878   0.0000000), wk =   0.0138889
        k(  113) = (   0.7500000   0.8179129   0.0000000), wk =   0.0138889
        k(  114) = (   0.7500000   0.9141379   0.0000000), wk =   0.0138889
        k(  115) = (   0.7500000   1.0103630   0.0000000), wk =   0.0138889
        k(  116) = (   0.7500000   1.1065880   0.0000000), wk =   0.0138889
        k(  117) = (   0.7500000   1.2028131   0.0000000), wk =   0.0138889
        k(  118) = (   0.7500000   1.2990381   0.0000000), wk =   0.0138889
        k(  119) = (   0.7500000   1.3952631   0.0000000), wk =   0.0138889
        k(  120) = (   0.7500000   1.4914882   0.0000000), wk =   0.0138889
        k(  121) = (   0.8333333   0.4811252   0.0000000), wk =   0.0138889
        k(  122) = (   0.8333333   0.5773503   0.0000000), wk =   0.0138889
        k(  123) = (   0.8333333   0.6735753   0.0000000), wk =   0.0138889
        k(  124) = (   0.8333333   0.7698004   0.0000000), wk =   0.0138889
        k(  125) = (   0.8333333   0.8660254   0.0000000), wk =   0.0138889
        k(  126) = (   0.8333333   0.9622505   0.0000000), wk =   0.0138889
        k(  127) = (   0.8333333   1.0584755   0.0000000), wk =   0.0138889
        k(  128) = (   0.8333333   1.1547005   0.0000000), wk =   0.0138889
        k(  129) = (   0.8333333   1.2509256   0.0000000), wk =   0.0138889
        k(  130) = (   0.8333333   1.3471506   0.0000000), wk =   0.0138889
        k(  131) = (   0.8333333   1.4433757   0.0000000), wk =   0.0138889
        k(  132) = (   0.8333333   1.5396007   0.0000000), wk =   0.0138889
        k(  133) = (   0.9166667   0.5292377   0.0000000), wk =   0.0138889
        k(  134) = (   0.9166667   0.6254628   0.0000000), wk =   0.0138889
        k(  135) = (   0.9166667   0.7216878   0.0000000), wk =   0.0138889
        k(  136) = (   0.9166667   0.8179129   0.0000000), wk =   0.0138889
        k(  137) = (   0.9166667   0.9141379   0.0000000), wk =   0.0138889
        k(  138) = (   0.9166667   1.0103630   0.0000000), wk =   0.0138889
        k(  139) = (   0.9166667   1.1065880   0.0000000), wk =   0.0138889
        k(  140) = (   0.9166667   1.2028131   0.0000000), wk =   0.0138889
        k(  141) = (   0.9166667   1.2990381   0.0000000), wk =   0.0138889
        k(  142) = (   0.9166667   1.3952632   0.0000000), wk =   0.0138889
        k(  143) = (   0.9166667   1.4914882   0.0000000), wk =   0.0138889
        k(  144) = (   0.9166667   1.5877132   0.0000000), wk =   0.0138889

                       cryst. coord.
        k(    1) = (   0.0000000   0.0000000   0.0000000), wk =   0.0138889
        k(    2) = (   0.0000000   0.0833333   0.0000000), wk =   0.0138889
        k(    3) = (   0.0000000   0.1666667   0.0000000), wk =   0.0138889
        k(    4) = (   0.0000000   0.2500000   0.0000000), wk =   0.0138889
        k(    5) = (   0.0000000   0.3333333   0.0000000), wk =   0.0138889
        k(    6) = (   0.0000000   0.4166667   0.0000000), wk =   0.0138889
        k(    7) = (   0.0000000   0.5000000   0.0000000), wk =   0.0138889
        k(    8) = (   0.0000000   0.5833333   0.0000000), wk =   0.0138889
        k(    9) = (   0.0000000   0.6666667   0.0000000), wk =   0.0138889
        k(   10) = (   0.0000000   0.7500000   0.0000000), wk =   0.0138889
        k(   11) = (   0.0000000   0.8333333   0.0000000), wk =   0.0138889
        k(   12) = (   0.0000000   0.9166667   0.0000000), wk =   0.0138889
        k(   13) = (   0.0833333   0.0000000   0.0000000), wk =   0.0138889
        k(   14) = (   0.0833333   0.0833333   0.0000000), wk =   0.0138889
        k(   15) = (   0.0833333   0.1666667   0.0000000), wk =   0.0138889
        k(   16) = (   0.0833333   0.2500000   0.0000000), wk =   0.0138889
        k(   17) = (   0.0833333   0.3333333   0.0000000), wk =   0.0138889
        k(   18) = (   0.0833333   0.4166667   0.0000000), wk =   0.0138889
        k(   19) = (   0.0833333   0.5000000   0.0000000), wk =   0.0138889
        k(   20) = (   0.0833333   0.5833333   0.0000000), wk =   0.0138889
        k(   21) = (   0.0833333   0.6666667   0.0000000), wk =   0.0138889
        k(   22) = (   0.0833333   0.7500000   0.0000000), wk =   0.0138889
        k(   23) = (   0.0833333   0.8333333   0.0000000), wk =   0.0138889
        k(   24) = (   0.0833333   0.9166667   0.0000000), wk =   0.0138889
        k(   25) = (   0.1666667   0.0000000   0.0000000), wk =   0.0138889
        k(   26) = (   0.1666667   0.0833333   0.0000000), wk =   0.0138889
        k(   27) = (   0.1666667   0.1666667   0.0000000), wk =   0.0138889
        k(   28) = (   0.1666667   0.2500000   0.0000000), wk =   0.0138889
        k(   29) = (   0.1666667   0.3333333   0.0000000), wk =   0.0138889
        k(   30) = (   0.1666667   0.4166667   0.0000000), wk =   0.0138889
        k(   31) = (   0.1666667   0.5000000   0.0000000), wk =   0.0138889
        k(   32) = (   0.1666667   0.5833333   0.0000000), wk =   0.0138889
        k(   33) = (   0.1666667   0.6666667   0.0000000), wk =   0.0138889
        k(   34) = (   0.1666667   0.7500000   0.0000000), wk =   0.0138889
        k(   35) = (   0.1666667   0.8333333   0.0000000), wk =   0.0138889
        k(   36) = (   0.1666667   0.9166667   0.0000000), wk =   0.0138889
        k(   37) = (   0.2500000   0.0000000   0.0000000), wk =   0.0138889
        k(   38) = (   0.2500000   0.0833333   0.0000000), wk =   0.0138889
        k(   39) = (   0.2500000   0.1666667   0.0000000), wk =   0.0138889
        k(   40) = (   0.2500000   0.2500000   0.0000000), wk =   0.0138889
        k(   41) = (   0.2500000   0.3333333   0.0000000), wk =   0.0138889
        k(   42) = (   0.2500000   0.4166667   0.0000000), wk =   0.0138889
        k(   43) = (   0.2500000   0.5000000   0.0000000), wk =   0.0138889
        k(   44) = (   0.2500000   0.5833333   0.0000000), wk =   0.0138889
        k(   45) = (   0.2500000   0.6666667   0.0000000), wk =   0.0138889
        k(   46) = (   0.2500000   0.7500000   0.0000000), wk =   0.0138889
        k(   47) = (   0.2500000   0.8333333   0.0000000), wk =   0.0138889
        k(   48) = (   0.2500000   0.9166667   0.0000000), wk =   0.0138889
        k(   49) = (   0.3333333   0.0000000   0.0000000), wk =   0.0138889
        k(   50) = (   0.3333333   0.0833333   0.0000000), wk =   0.0138889
        k(   51) = (   0.3333333   0.1666667   0.0000000), wk =   0.0138889
        k(   52) = (   0.3333333   0.2500000   0.0000000), wk =   0.0138889
        k(   53) = (   0.3333333   0.3333333   0.0000000), wk =   0.0138889
        k(   54) = (   0.3333333   0.4166667   0.0000000), wk =   0.0138889
        k(   55) = (   0.3333333   0.5000000   0.0000000), wk =   0.0138889
        k(   56) = (   0.3333333   0.5833333   0.0000000), wk =   0.0138889
        k(   57) = (   0.3333333   0.6666667   0.0000000), wk =   0.0138889
        k(   58) = (   0.3333333   0.7500000   0.0000000), wk =   0.0138889
        k(   59) = (   0.3333333   0.8333333   0.0000000), wk =   0.0138889
        k(   60) = (   0.3333333   0.9166667   0.0000000), wk =   0.0138889
        k(   61) = (   0.4166667   0.0000000   0.0000000), wk =   0.0138889
        k(   62) = (   0.4166667   0.0833333   0.0000000), wk =   0.0138889
        k(   63) = (   0.4166667   0.1666667   0.0000000), wk =   0.0138889
        k(   64) = (   0.4166667   0.2500000   0.0000000), wk =   0.0138889
        k(   65) = (   0.4166667   0.3333333   0.0000000), wk =   0.0138889
        k(   66) = (   0.4166667   0.4166667   0.0000000), wk =   0.0138889
        k(   67) = (   0.4166667   0.5000000   0.0000000), wk =   0.0138889
        k(   68) = (   0.4166667   0.5833333   0.0000000), wk =   0.0138889
        k(   69) = (   0.4166667   0.6666667   0.0000000), wk =   0.0138889
        k(   70) = (   0.4166667   0.7500000   0.0000000), wk =   0.0138889
        k(   71) = (   0.4166667   0.8333333   0.0000000), wk =   0.0138889
        k(   72) = (   0.4166667   0.9166667   0.0000000), wk =   0.0138889
        k(   73) = (   0.5000000   0.0000000   0.0000000), wk =   0.0138889
        k(   74) = (   0.5000000   0.0833333   0.0000000), wk =   0.0138889
        k(   75) = (   0.5000000   0.1666667   0.0000000), wk =   0.0138889
        k(   76) = (   0.5000000   0.2500000   0.0000000), wk =   0.0138889
        k(   77) = (   0.5000000   0.3333333   0.0000000), wk =   0.0138889
        k(   78) = (   0.5000000   0.4166667   0.0000000), wk =   0.0138889
        k(   79) = (   0.5000000   0.5000000   0.0000000), wk =   0.0138889
        k(   80) = (   0.5000000   0.5833333   0.0000000), wk =   0.0138889
        k(   81) = (   0.5000000   0.6666667   0.0000000), wk =   0.0138889
        k(   82) = (   0.5000000   0.7500000   0.0000000), wk =   0.0138889
        k(   83) = (   0.5000000   0.8333333   0.0000000), wk =   0.0138889
        k(   84) = (   0.5000000   0.9166667   0.0000000), wk =   0.0138889
        k(   85) = (   0.5833333   0.0000000   0.0000000), wk =   0.0138889
        k(   86) = (   0.5833333   0.0833333   0.0000000), wk =   0.0138889
        k(   87) = (   0.5833333   0.1666667   0.0000000), wk =   0.0138889
        k(   88) = (   0.5833333   0.2500000   0.0000000), wk =   0.0138889
        k(   89) = (   0.5833333   0.3333333   0.0000000), wk =   0.0138889
        k(   90) = (   0.5833333   0.4166667   0.0000000), wk =   0.0138889
        k(   91) = (   0.5833333   0.5000000   0.0000000), wk =   0.0138889
        k(   92) = (   0.5833333   0.5833333   0.0000000), wk =   0.0138889
        k(   93) = (   0.5833333   0.6666667   0.0000000), wk =   0.0138889
        k(   94) = (   0.5833333   0.7500000   0.0000000), wk =   0.0138889
        k(   95) = (   0.5833333   0.8333333   0.0000000), wk =   0.0138889
        k(   96) = (   0.5833333   0.9166667   0.0000000), wk =   0.0138889
        k(   97) = (   0.6666667   0.0000000   0.0000000), wk =   0.0138889
        k(   98) = (   0.6666667   0.0833333   0.0000000), wk =   0.0138889
        k(   99) = (   0.6666667   0.1666667   0.0000000), wk =   0.0138889
        k(  100) = (   0.6666667   0.2500000   0.0000000), wk =   0.0138889
        k(  101) = (   0.6666667   0.3333333   0.0000000), wk =   0.0138889
        k(  102) = (   0.6666667   0.4166667   0.0000000), wk =   0.0138889
        k(  103) = (   0.6666667   0.5000000   0.0000000), wk =   0.0138889
        k(  104) = (   0.6666667   0.5833333   0.0000000), wk =   0.0138889
        k(  105) = (   0.6666667   0.6666667   0.0000000), wk =   0.0138889
        k(  106) = (   0.6666667   0.7500000   0.0000000), wk =   0.0138889
        k(  107) = (   0.6666667   0.8333333   0.0000000), wk =   0.0138889
        k(  108) = (   0.6666667   0.9166667   0.0000000), wk =   0.0138889
        k(  109) = (   0.7500000   0.0000000   0.0000000), wk =   0.0138889
        k(  110) = (   0.7500000   0.0833333   0.0000000), wk =   0.0138889
        k(  111) = (   0.7500000   0.1666667   0.0000000), wk =   0.0138889
        k(  112) = (   0.7500000   0.2500000   0.0000000), wk =   0.0138889
        k(  113) = (   0.7500000   0.3333333   0.0000000), wk =   0.0138889
        k(  114) = (   0.7500000   0.4166667   0.0000000), wk =   0.0138889
        k(  115) = (   0.7500000   0.5000000   0.0000000), wk =   0.0138889
        k(  116) = (   0.7500000   0.5833333   0.0000000), wk =   0.0138889
        k(  117) = (   0.7500000   0.6666667   0.0000000), wk =   0.0138889
        k(  118) = (   0.7500000   0.7500000   0.0000000), wk =   0.0138889
        k(  119) = (   0.7500000   0.8333333   0.0000000), wk =   0.0138889
        k(  120) = (   0.7500000   0.9166667   0.0000000), wk =   0.0138889
        k(  121) = (   0.8333333   0.0000000   0.0000000), wk =   0.0138889
        k(  122) = (   0.8333333   0.0833333   0.0000000), wk =   0.0138889
        k(  123) = (   0.8333333   0.1666667   0.0000000), wk =   0.0138889
        k(  124) = (   0.8333333   0.2500000   0.0000000), wk =   0.0138889
        k(  125) = (   0.8333333   0.3333333   0.0000000), wk =   0.0138889
        k(  126) = (   0.8333333   0.4166667   0.0000000), wk =   0.0138889
        k(  127) = (   0.8333333   0.5000000   0.0000000), wk =   0.0138889
        k(  128) = (   0.8333333   0.5833333   0.0000000), wk =   0.0138889
        k(  129) = (   0.8333333   0.6666667   0.0000000), wk =   0.0138889
        k(  130) = (   0.8333333   0.7500000   0.0000000), wk =   0.0138889
        k(  131) = (   0.8333333   0.8333333   0.0000000), wk =   0.0138889
        k(  132) = (   0.8333333   0.9166667   0.0000000), wk =   0.0138889
        k(  133) = (   0.9166667  -0.0000000   0.0000000), wk =   0.0138889
        k(  134) = (   0.9166667   0.0833333   0.0000000), wk =   0.0138889
        k(  135) = (   0.9166667   0.1666667   0.0000000), wk =   0.0138889
        k(  136) = (   0.9166667   0.2500000   0.0000000), wk =   0.0138889
        k(  137) = (   0.9166667   0.3333333   0.0000000), wk =   0.0138889
        k(  138) = (   0.9166667   0.4166667   0.0000000), wk =   0.0138889
        k(  139) = (   0.9166667   0.5000000   0.0000000), wk =   0.0138889
        k(  140) = (   0.9166667   0.5833333   0.0000000), wk =   0.0138889
        k(  141) = (   0.9166667   0.6666667   0.0000000), wk =   0.0138889
        k(  142) = (   0.9166667   0.7500000   0.0000000), wk =   0.0138889
        k(  143) = (   0.9166667   0.8333333   0.0000000), wk =   0.0138889
        k(  144) = (   0.9166667   0.9166667   0.0000000), wk =   0.0138889

     Dense  grid:    61545 G-vectors     FFT dimensions: (  30,  30, 180)

     Smooth grid:    21673 G-vectors     FFT dimensions: (  20,  20, 125)

     Dynamical RAM for                 wfc:       0.58 MB

     Dynamical RAM for     wfc (w. buffer):       0.58 MB

     Dynamical RAM for           str. fact:       0.23 MB

     Dynamical RAM for           local pot:       0.00 MB

     Dynamical RAM for          nlocal pot:       0.17 MB

     Dynamical RAM for                qrad:       0.44 MB

     Dynamical RAM for          rho,v,vnew:       1.63 MB

     Dynamical RAM for           G-vectors:       0.92 MB

     Dynamical RAM for          h,s,v(r/c):       0.14 MB

     Dynamical RAM for          <psi|beta>:       0.01 MB

     Dynamical RAM for                 psi:       1.16 MB

     Dynamical RAM for                hpsi:       1.16 MB

     Dynamical RAM for                spsi:       1.16 MB

     Dynamical RAM for      wfcinit/wfcrot:       1.23 MB

     Dynamical RAM for           addusdens:       1.71 MB

     Estimated static dynamical RAM per process >       5.98 MB

     Estimated max dynamical RAM per process >       9.63 MB

     Estimated total dynamical RAM >     269.58 MB

     Check: negative core charge=   -0.000005

     The potential is recalculated from file :
     ./graphene.save/charge-density


     negative rho (up, down):  2.169E-04 0.000E+00
     Starting wfcs are    8 randomized atomic wfcs +   48 random wfcs
     Checking if some PAW data can be deallocated... 

     Band Structure Calculation
     Davidson diagonalization with overlap

     Computing kpt #:     1  of    21 on this pool
     total cpu time spent up to now is        7.0 secs

     Computing kpt #:     2  of    21 on this pool
     total cpu time spent up to now is        8.0 secs

     Computing kpt #:     3  of    21 on this pool
     total cpu time spent up to now is       10.3 secs

     Computing kpt #:     4  of    21 on this pool
     total cpu time spent up to now is       11.2 secs

     Computing kpt #:     5  of    21 on this pool
     total cpu time spent up to now is       12.1 secs

     Computing kpt #:     6  of    21 on this pool
     total cpu time spent up to now is       13.3 secs

     Computing kpt #:     7  of    21 on this pool
     total cpu time spent up to now is       15.5 secs

     Computing kpt #:     8  of    21 on this pool
     total cpu time spent up to now is       16.4 secs

     Computing kpt #:     9  of    21 on this pool
     total cpu time spent up to now is       17.5 secs

     Computing kpt #:    10  of    21 on this pool
     total cpu time spent up to now is       18.6 secs

     Computing kpt #:    11  of    21 on this pool
     total cpu time spent up to now is       20.4 secs

     Computing kpt #:    12  of    21 on this pool
     total cpu time spent up to now is       21.6 secs

     Computing kpt #:    13  of    21 on this pool
     total cpu time spent up to now is       22.8 secs

     Computing kpt #:    14  of    21 on this pool
     total cpu time spent up to now is       24.1 secs

     Computing kpt #:    15  of    21 on this pool
     total cpu time spent up to now is       25.0 secs

     Computing kpt #:    16  of    21 on this pool
     total cpu time spent up to now is       25.8 secs

     Computing kpt #:    17  of    21 on this pool
     total cpu time spent up to now is       27.2 secs

     Computing kpt #:    18  of    21 on this pool
     total cpu time spent up to now is       28.2 secs

     Computing kpt #:    19  of    21 on this pool
     total cpu time spent up to now is       29.3 secs

     Computing kpt #:    20  of    21 on this pool
     total cpu time spent up to now is       30.1 secs

     Computing kpt #:    21  of    21 on this pool
     total cpu time spent up to now is       31.0 secs

     ethr =  1.25E-11,  avg # of iterations = 32.9

     total cpu time spent up to now is       31.0 secs

     End of band structure calculation

          k = 0.0000 0.0000 0.0000 (  2641 PWs)   bands (ev):

   -21.2421  -9.3371  -4.7779  -4.7779   1.4197   2.2444   2.5058   4.4750
     5.3135   6.5972   6.5972   8.4547   9.5791   9.6812  10.7514  13.7925
    15.2992  20.3696  20.7525  22.4599  26.4802  26.4802  27.4269  29.8641
    29.8641  30.9569  31.8527  33.4350  33.4350  33.9199  33.9199  34.3503
    34.6184  34.7360  35.2282  35.2282  35.2936  35.2936  35.4081  35.4081
    35.4629  35.5309  35.6377  35.6377  35.7909  36.8330  37.4947  37.6873
    37.6873  37.8059  37.8059  37.8131  37.8131  38.2269  38.2269  38.2848

     occupation numbers 
     1.0000   1.0000   1.0000   1.0000   0.0000   0.0000   0.0000   0.0000
     0.0000   0.0000   0.0000   0.0000   0.0000   0.0000   0.0000   0.0000
     0.0000   0.0000   0.0000   0.0000   0.0000   0.0000   0.0000   0.0000
     0.0000   0.0000   0.0000   0.0000   0.0000   0.0000   0.0000   0.0000
     0.0000   0.0000   0.0000   0.0000   0.0000   0.0000   0.0000   0.0000
     0.0000   0.0000   0.0000   0.0000   0.0000   0.0000   0.0000   0.0000
     0.0000   0.0000   0.0000   0.0000   0.0000   0.0000   0.0000   0.0000

          k = 0.0000 0.0962 0.0000 (  2671 PWs)   bands (ev):

   -21.0783  -9.1413  -5.4287  -5.1160   1.6435   2.4698   2.7318   4.6978
     5.5328   6.6675   7.2909   8.6711   9.1217   9.8040  11.0549  13.9922
    15.5198  20.4783  21.2612  22.6777  24.7384  25.2018  27.4163  28.9757
    29.8490  30.1182  30.3782  31.1593  31.2099  31.4945  31.9582  32.4914
    32.7479  32.7638  33.0687  33.0851  33.1467  34.5518  35.1775  35.2599
    35.5227  35.7749  36.5669  36.5754  36.6422  37.5791  38.1928  38.2113
    38.4359  38.4878  38.6549  39.1653  39.2591  39.6865  39.7388  40.3095

     occupation numbers 
     1.0000   1.0000   1.0000   1.0000   0.0000   0.0000   0.0000   0.0000
     0.0000   0.0000   0.0000   0.0000   0.0000   0.0000   0.0000   0.0000
     0.0000   0.0000   0.0000   0.0000   0.0000   0.0000   0.0000   0.0000
     0.0000   0.0000   0.0000   0.0000   0.0000   0.0000   0.0000   0.0000
     0.0000   0.0000   0.0000   0.0000   0.0000   0.0000   0.0000   0.0000
     0.0000   0.0000   0.0000   0.0000   0.0000   0.0000   0.0000   0.0000
     0.0000   0.0000   0.0000   0.0000   0.0000   0.0000   0.0000   0.0000

          k = 0.0000 0.1925 0.0000 (  2699 PWs)   bands (ev):

   -20.5886  -8.5593  -7.0662  -5.9078   2.3147   3.1445   3.4099   5.3630
     6.1744   6.6426   7.6174   9.1292   9.3200  10.4696  12.0272  14.5680
    16.1728  20.2742  22.2256  22.4947  23.3677  23.3850  24.5747  25.5009
    25.5512  27.4669  28.2105  28.8272  29.1827  29.9278  30.0232  30.6947
    30.8968  31.0053  31.5435  31.7940  32.3095  32.3887  33.2273  33.2451
    33.8138  33.9248  34.9629  36.8329  37.2334  37.5613  37.7569  37.7693
    38.2147  39.1305  39.6258  40.4332  40.7648  41.2878  41.5713  41.8453

     occupation numbers 
     1.0000   1.0000   1.0000   1.0000   0.0000   0.0000   0.0000   0.0000
     0.0000   0.0000   0.0000   0.0000   0.0000   0.0000   0.0000   0.0000
     0.0000   0.0000   0.0000   0.0000   0.0000   0.0000   0.0000   0.0000
     0.0000   0.0000   0.0000   0.0000   0.0000   0.0000   0.0000   0.0000
     0.0000   0.0000   0.0000   0.0000   0.0000   0.0000   0.0000   0.0000
     0.0000   0.0000   0.0000   0.0000   0.0000   0.0000   0.0000   0.0000
     0.0000   0.0000   0.0000   0.0000   0.0000   0.0000   0.0000   0.0000

          k = 0.0000 0.2887 0.0000 (  2689 PWs)   bands (ev):

   -19.7789  -9.1640  -7.6102  -6.7870   3.4315   4.2541   4.5391   5.5140
     6.3076   6.4985   7.3457  10.3837  11.5650  11.6701  13.3958  15.3931
    17.2380  18.5599  20.0003  21.0193  21.1414  21.8735  22.5685  23.2852
    24.2278  24.2553  25.2887  27.2405  27.5867  28.1447  28.6798  28.8678
    29.0937  29.3190  29.5519  30.3302  30.7972  31.6258  31.7721  32.2723
    32.9498  33.2658  33.9443  34.2699  35.6165  35.9548  36.5066  36.6891
    38.7550  39.8585  40.1563  40.3626  40.5472  41.5843  41.8926  41.9736

     occupation numbers 
     1.0000   1.0000   1.0000   1.0000   0.0000   0.0000   0.0000   0.0000
     0.0000   0.0000   0.0000   0.0000   0.0000   0.0000   0.0000   0.0000
     0.0000   0.0000   0.0000   0.0000   0.0000   0.0000   0.0000   0.0000
     0.0000   0.0000   0.0000   0.0000   0.0000   0.0000   0.0000   0.0000
     0.0000   0.0000   0.0000   0.0000   0.0000   0.0000   0.0000   0.0000
     0.0000   0.0000   0.0000   0.0000   0.0000   0.0000   0.0000   0.0000
     0.0000   0.0000   0.0000   0.0000   0.0000   0.0000   0.0000   0.0000

          k = 0.0000 0.3849 0.0000 (  2706 PWs)   bands (ev):

   -18.6614 -11.3661  -7.5201  -6.3443   3.1818   4.9840   5.8567   5.9535
     6.1642   8.0271   8.8900  11.8160  13.0795  14.0497  14.4920  15.4329
    16.6426  16.9839  17.7155  18.2459  18.6872  20.2892  20.3597  20.7724
    23.2926  23.8035  25.1876  25.2271  26.4199  26.6191  27.4678  27.5868
    27.9445  28.1814  28.4103  28.9099  30.2255  30.3351  30.4570  30.6463
    31.2625  32.6539  33.2756  34.3728  34.5058  34.8887  35.5557  36.3840
    37.3410  38.1824  38.2189  40.1012  40.5225  40.8504  40.9764  42.6767

     occupation numbers 
     1.0000   1.0000   1.0000   1.0000   0.0000   0.0000   0.0000   0.0000
     0.0000   0.0000   0.0000   0.0000   0.0000   0.0000   0.0000   0.0000
     0.0000   0.0000   0.0000   0.0000   0.0000   0.0000   0.0000   0.0000
     0.0000   0.0000   0.0000   0.0000   0.0000   0.0000   0.0000   0.0000
     0.0000   0.0000   0.0000   0.0000   0.0000   0.0000   0.0000   0.0000
     0.0000   0.0000   0.0000   0.0000   0.0000   0.0000   0.0000   0.0000
     0.0000   0.0000   0.0000   0.0000   0.0000   0.0000   0.0000   0.0000

          k = 0.0000 0.4811 0.0000 (  2714 PWs)   bands (ev):

   -17.2674 -13.4644  -7.9927  -4.9246   1.0519   5.7305   6.9976   7.8521
     8.1588   9.9721  10.8720  12.0700  12.8184  13.5166  13.6931  14.9882
    15.0359  15.8146  17.0114  17.2108  18.5317  19.3566  20.1067  20.2975
    21.4787  21.6024  24.7731  25.1873  25.6710  26.4468  26.5864  27.1654
    27.2454  27.4975  27.5003  27.7654  29.1513  29.3310  29.7098  29.9663
    30.4636  31.9498  33.2560  33.3896  33.9896  34.2177  34.6735  35.5314
    36.0022  36.9504  37.8923  39.9260  39.9597  40.2947  40.6566  42.4119

     occupation numbers 
     1.0000   1.0000   1.0000   1.0000   0.0000   0.0000   0.0000   0.0000
     0.0000   0.0000   0.0000   0.0000   0.0000   0.0000   0.0000   0.0000
     0.0000   0.0000   0.0000   0.0000   0.0000   0.0000   0.0000   0.0000
     0.0000   0.0000   0.0000   0.0000   0.0000   0.0000   0.0000   0.0000
     0.0000   0.0000   0.0000   0.0000   0.0000   0.0000   0.0000   0.0000
     0.0000   0.0000   0.0000   0.0000   0.0000   0.0000   0.0000   0.0000
     0.0000   0.0000   0.0000   0.0000   0.0000   0.0000   0.0000   0.0000

          k = 0.0000 0.5774 0.0000 (  2724 PWs)   bands (ev):

   -16.0085 -14.9660  -8.1550  -4.0822  -0.0430   5.6510   9.3206   9.4577
    10.1524  10.3415  10.6182  10.6444  12.0707  12.5370  13.2212  13.2840
    15.0240  16.4624  17.0262  17.2262  18.1380  18.7866  19.8842  20.3379
    21.7857  22.0058  23.7824  24.0534  25.3872  25.8869  26.4353  26.8055
    27.0065  27.2694  27.3003  28.4823  28.7021  29.4289  29.7392  30.0705
    30.7819  30.8034  31.7956  32.8612  33.1313  33.9925  34.4160  35.1717
    36.3415  37.4040  39.1238  39.5598  39.6819  39.7085  39.9363  40.3383

     occupation numbers 
     1.0000   1.0000   1.0000   1.0000   0.0000   0.0000   0.0000   0.0000
     0.0000   0.0000   0.0000   0.0000   0.0000   0.0000   0.0000   0.0000
     0.0000   0.0000   0.0000   0.0000   0.0000   0.0000   0.0000   0.0000
     0.0000   0.0000   0.0000   0.0000   0.0000   0.0000   0.0000   0.0000
     0.0000   0.0000   0.0000   0.0000   0.0000   0.0000   0.0000   0.0000
     0.0000   0.0000   0.0000   0.0000   0.0000   0.0000   0.0000   0.0000
     0.0000   0.0000   0.0000   0.0000   0.0000   0.0000   0.0000   0.0000

          k = 0.0000 0.6736 0.0000 (  2714 PWs)   bands (ev):

   -17.2674 -13.4644  -7.9927  -4.9246   1.0519   5.7305   6.9976   7.8521
     8.1588   9.9721  10.8720  12.0700  12.8184  13.5166  13.6931  14.9882
    15.0359  15.8146  17.0114  17.2108  18.5317  19.3566  20.1067  20.2975
    21.4787  21.6024  24.7731  25.1873  25.6710  26.4468  26.5864  27.1654
    27.2454  27.4975  27.5003  27.7654  29.1513  29.3310  29.7098  29.9663
    30.4636  31.9498  33.2560  33.3896  33.9896  34.2177  34.6735  35.5314
    36.0022  36.9504  37.8923  39.9260  39.9597  40.2947  40.6566  42.4119

     occupation numbers 
     1.0000   1.0000   1.0000   1.0000   0.0000   0.0000   0.0000   0.0000
     0.0000   0.0000   0.0000   0.0000   0.0000   0.0000   0.0000   0.0000
     0.0000   0.0000   0.0000   0.0000   0.0000   0.0000   0.0000   0.0000
     0.0000   0.0000   0.0000   0.0000   0.0000   0.0000   0.0000   0.0000
     0.0000   0.0000   0.0000   0.0000   0.0000   0.0000   0.0000   0.0000
     0.0000   0.0000   0.0000   0.0000   0.0000   0.0000   0.0000   0.0000
     0.0000   0.0000   0.0000   0.0000   0.0000   0.0000   0.0000   0.0000

          k = 0.0000 0.7698 0.0000 (  2706 PWs)   bands (ev):

   -18.6614 -11.3661  -7.5201  -6.3443   3.1818   4.9840   5.8567   5.9535
     6.1642   8.0271   8.8900  11.8160  13.0795  14.0497  14.4920  15.4329
    16.6426  16.9839  17.7155  18.2459  18.6872  20.2892  20.3597  20.7724
    23.2926  23.8035  25.1876  25.2271  26.4199  26.6191  27.4678  27.5868
    27.9445  28.1814  28.4103  28.9099  30.2255  30.3351  30.4570  30.6463
    31.2625  32.6539  33.2756  34.3728  34.5058  34.8887  35.5557  36.3840
    37.3410  38.1824  38.2189  40.1012  40.5225  40.8504  40.9764  42.6767

     occupation numbers 
     1.0000   1.0000   1.0000   1.0000   0.0000   0.0000   0.0000   0.0000
     0.0000   0.0000   0.0000   0.0000   0.0000   0.0000   0.0000   0.0000
     0.0000   0.0000   0.0000   0.0000   0.0000   0.0000   0.0000   0.0000
     0.0000   0.0000   0.0000   0.0000   0.0000   0.0000   0.0000   0.0000
     0.0000   0.0000   0.0000   0.0000   0.0000   0.0000   0.0000   0.0000
     0.0000   0.0000   0.0000   0.0000   0.0000   0.0000   0.0000   0.0000
     0.0000   0.0000   0.0000   0.0000   0.0000   0.0000   0.0000   0.0000

          k = 0.0000 0.8660 0.0000 (  2689 PWs)   bands (ev):

   -19.7789  -9.1640  -7.6102  -6.7870   3.4315   4.2541   4.5391   5.5140
     6.3076   6.4985   7.3457  10.3837  11.5650  11.6701  13.3958  15.3931
    17.2380  18.5599  20.0003  21.0193  21.1414  21.8735  22.5685  23.2852
    24.2278  24.2553  25.2887  27.2405  27.5867  28.1447  28.6798  28.8678
    29.0937  29.3190  29.5519  30.3302  30.7972  31.6258  31.7721  32.2723
    32.9498  33.2658  33.9443  34.2699  35.6165  35.9548  36.5066  36.6891
    38.7550  39.8585  40.1563  40.3626  40.5472  41.5843  41.8926  41.9736

     occupation numbers 
     1.0000   1.0000   1.0000   1.0000   0.0000   0.0000   0.0000   0.0000
     0.0000   0.0000   0.0000   0.0000   0.0000   0.0000   0.0000   0.0000
     0.0000   0.0000   0.0000   0.0000   0.0000   0.0000   0.0000   0.0000
     0.0000   0.0000   0.0000   0.0000   0.0000   0.0000   0.0000   0.0000
     0.0000   0.0000   0.0000   0.0000   0.0000   0.0000   0.0000   0.0000
     0.0000   0.0000   0.0000   0.0000   0.0000   0.0000   0.0000   0.0000
     0.0000   0.0000   0.0000   0.0000   0.0000   0.0000   0.0000   0.0000

          k = 0.0000 0.9623 0.0000 (  2699 PWs)   bands (ev):

   -20.5886  -8.5593  -7.0662  -5.9078   2.3147   3.1445   3.4099   5.3630
     6.1744   6.6426   7.6174   9.1292   9.3200  10.4696  12.0272  14.5680
    16.1728  20.2742  22.2256  22.4947  23.3677  23.3850  24.5747  25.5009
    25.5512  27.4669  28.2105  28.8272  29.1827  29.9278  30.0232  30.6947
    30.8968  31.0053  31.5435  31.7940  32.3095  32.3887  33.2273  33.2451
    33.8138  33.9248  34.9629  36.8329  37.2334  37.5613  37.7569  37.7693
    38.2147  39.1305  39.6258  40.4332  40.7648  41.2878  41.5713  41.8453

     occupation numbers 
     1.0000   1.0000   1.0000   1.0000   0.0000   0.0000   0.0000   0.0000
     0.0000   0.0000   0.0000   0.0000   0.0000   0.0000   0.0000   0.0000
     0.0000   0.0000   0.0000   0.0000   0.0000   0.0000   0.0000   0.0000
     0.0000   0.0000   0.0000   0.0000   0.0000   0.0000   0.0000   0.0000
     0.0000   0.0000   0.0000   0.0000   0.0000   0.0000   0.0000   0.0000
     0.0000   0.0000   0.0000   0.0000   0.0000   0.0000   0.0000   0.0000
     0.0000   0.0000   0.0000   0.0000   0.0000   0.0000   0.0000   0.0000

          k = 0.0000 1.0585 0.0000 (  2671 PWs)   bands (ev):

   -21.0783  -9.1413  -5.4287  -5.1160   1.6435   2.4698   2.7318   4.6978
     5.5328   6.6675   7.2909   8.6711   9.1217   9.8040  11.0549  13.9922
    15.5198  20.4783  21.2612  22.6777  24.7384  25.2018  27.4163  28.9757
    29.8490  30.1182  30.3782  31.1593  31.2099  31.4945  31.9582  32.4914
    32.7479  32.7638  33.0687  33.0851  33.1467  34.5518  35.1775  35.2599
    35.5227  35.7749  36.5669  36.5754  36.6422  37.5791  38.1928  38.2113
    38.4359  38.4878  38.6549  39.1653  39.2591  39.6865  39.7388  40.3095

     occupation numbers 
     1.0000   1.0000   1.0000   1.0000   0.0000   0.0000   0.0000   0.0000
     0.0000   0.0000   0.0000   0.0000   0.0000   0.0000   0.0000   0.0000
     0.0000   0.0000   0.0000   0.0000   0.0000   0.0000   0.0000   0.0000
     0.0000   0.0000   0.0000   0.0000   0.0000   0.0000   0.0000   0.0000
     0.0000   0.0000   0.0000   0.0000   0.0000   0.0000   0.0000   0.0000
     0.0000   0.0000   0.0000   0.0000   0.0000   0.0000   0.0000   0.0000
     0.0000   0.0000   0.0000   0.0000   0.0000   0.0000   0.0000   0.0000

          k = 0.0833 0.0481 0.0000 (  2671 PWs)   bands (ev):

   -21.0783  -9.1413  -5.4287  -5.1160   1.6435   2.4698   2.7318   4.6978
     5.5328   6.6675   7.2909   8.6711   9.1217   9.8040  11.0549  13.9922
    15.5198  20.4783  21.2612  22.6777  24.7384  25.2018  27.4163  28.9757
    29.8490  30.1182  30.3782  31.1593  31.2099  31.4945  31.9582  32.4914
    32.7479  32.7638  33.0687  33.0851  33.1467  34.5518  35.1775  35.2599
    35.5227  35.7749  36.5669  36.5754  36.6422  37.5791  38.1928  38.2113
    38.4359  38.4878  38.6549  39.1653  39.2591  39.6865  39.7388  40.3095

     occupation numbers 
     1.0000   1.0000   1.0000   1.0000   0.0000   0.0000   0.0000   0.0000
     0.0000   0.0000   0.0000   0.0000   0.0000   0.0000   0.0000   0.0000
     0.0000   0.0000   0.0000   0.0000   0.0000   0.0000   0.0000   0.0000
     0.0000   0.0000   0.0000   0.0000   0.0000   0.0000   0.0000   0.0000
     0.0000   0.0000   0.0000   0.0000   0.0000   0.0000   0.0000   0.0000
     0.0000   0.0000   0.0000   0.0000   0.0000   0.0000   0.0000   0.0000
     0.0000   0.0000   0.0000   0.0000   0.0000   0.0000   0.0000   0.0000

          k = 0.0833 0.1443 0.0000 (  2691 PWs)   bands (ev):

   -20.7516  -8.7523  -6.4626  -5.7928   2.0912   2.9199   3.1840   5.1423
     5.9723   6.9723   8.1026   8.1657   9.1015  10.2505  11.8022  14.3762
    15.9562  20.3586  22.0342  22.5762  23.1414  24.5185  26.6066  27.0260
    27.7249  27.8185  27.9435  27.9988  28.0587  29.8735  30.3466  30.5025
    30.7209  31.3360  31.5749  33.2975  34.2702  34.4001  34.6762  34.8676
    34.9626  35.3712  36.0283  36.1292  36.1307  36.3887  37.5556  38.4224
    38.5573  38.5580  38.6184  39.6870  40.1078  40.2463  40.2988  41.0676

     occupation numbers 
     1.0000   1.0000   1.0000   1.0000   0.0000   0.0000   0.0000   0.0000
     0.0000   0.0000   0.0000   0.0000   0.0000   0.0000   0.0000   0.0000
     0.0000   0.0000   0.0000   0.0000   0.0000   0.0000   0.0000   0.0000
     0.0000   0.0000   0.0000   0.0000   0.0000   0.0000   0.0000   0.0000
     0.0000   0.0000   0.0000   0.0000   0.0000   0.0000   0.0000   0.0000
     0.0000   0.0000   0.0000   0.0000   0.0000   0.0000   0.0000   0.0000
     0.0000   0.0000   0.0000   0.0000   0.0000   0.0000   0.0000   0.0000

          k = 0.0833 0.2406 0.0000 (  2702 PWs)   bands (ev):

   -20.1019  -8.1722  -7.9856  -6.7901   2.9858   3.8169   4.0884   6.0145
     6.3719   6.8133   7.1674   9.6859   9.9495  11.1339  13.3937  15.0417
    16.8150  18.7504  21.8409  22.2596  22.6799  22.9924  23.6684  24.0159
    24.2103  25.2710  26.0294  26.1286  26.3494  26.6064  28.1561  28.8518
    28.9928  30.4624  30.5503  31.3002  32.3845  32.5460  33.3660  33.4793
    34.1575  34.2837  35.2825  35.9141  36.4722  36.8130  37.7720  38.2662
    38.4358  38.7188  39.6145  39.8365  40.1917  40.7998  41.2421  41.4386

     occupation numbers 
     1.0000   1.0000   1.0000   1.0000   0.0000   0.0000   0.0000   0.0000
     0.0000   0.0000   0.0000   0.0000   0.0000   0.0000   0.0000   0.0000
     0.0000   0.0000   0.0000   0.0000   0.0000   0.0000   0.0000   0.0000
     0.0000   0.0000   0.0000   0.0000   0.0000   0.0000   0.0000   0.0000
     0.0000   0.0000   0.0000   0.0000   0.0000   0.0000   0.0000   0.0000
     0.0000   0.0000   0.0000   0.0000   0.0000   0.0000   0.0000   0.0000
     0.0000   0.0000   0.0000   0.0000   0.0000   0.0000   0.0000   0.0000

          k = 0.0833 0.3368 0.0000 (  2711 PWs)   bands (ev):

   -19.1381 -10.2443  -7.6760  -6.8716   4.1897   4.3237   5.1835   5.4429
     6.8455   7.3541   8.2304  11.1740  11.7956  12.4525  15.1675  15.3440
    17.5236  18.0490  18.4284  19.3030  19.3565  21.0547  21.9668  22.6938
    23.2711  23.9159  24.3165  24.7813  24.8128  25.8448  26.4846  26.9609
    27.0656  27.8061  29.8895  31.0274  31.1339  31.8790  32.3240  32.5215
    32.8833  32.9146  33.9401  34.0174  35.4226  35.6048  37.2735  37.2748
    38.2776  39.0292  39.2456  39.2789  40.9706  41.2939  41.6857  42.0318

     occupation numbers 
     1.0000   1.0000   1.0000   1.0000   0.0000   0.0000   0.0000   0.0000
     0.0000   0.0000   0.0000   0.0000   0.0000   0.0000   0.0000   0.0000
     0.0000   0.0000   0.0000   0.0000   0.0000   0.0000   0.0000   0.0000
     0.0000   0.0000   0.0000   0.0000   0.0000   0.0000   0.0000   0.0000
     0.0000   0.0000   0.0000   0.0000   0.0000   0.0000   0.0000   0.0000
     0.0000   0.0000   0.0000   0.0000   0.0000   0.0000   0.0000   0.0000
     0.0000   0.0000   0.0000   0.0000   0.0000   0.0000   0.0000   0.0000

          k = 0.0833 0.4330 0.0000 (  2720 PWs)   bands (ev):

   -17.8792 -12.3655  -8.3106  -5.4947   1.9962   6.0831   6.5750   6.9502
     7.2620   9.0818   9.9924  12.5362  13.0118  14.1518  14.3213  15.0105
    15.7113  15.9301  17.4821  17.6844  19.1835  19.2664  19.7296  20.9999
    22.3930  22.8469  23.1068  23.6883  23.9198  24.9546  25.6382  26.0971
    26.4611  27.8033  28.0801  29.0607  30.0653  30.1684  31.1271  31.8628
    31.9452  32.8512  33.6616  34.3623  35.1093  35.4699  35.7126  36.1916
    36.5814  37.7120  38.0470  39.2187  39.4661  41.9905  42.7652  42.9293

     occupation numbers 
     1.0000   1.0000   1.0000   1.0000   0.0000   0.0000   0.0000   0.0000
     0.0000   0.0000   0.0000   0.0000   0.0000   0.0000   0.0000   0.0000
     0.0000   0.0000   0.0000   0.0000   0.0000   0.0000   0.0000   0.0000
     0.0000   0.0000   0.0000   0.0000   0.0000   0.0000   0.0000   0.0000
     0.0000   0.0000   0.0000   0.0000   0.0000   0.0000   0.0000   0.0000
     0.0000   0.0000   0.0000   0.0000   0.0000   0.0000   0.0000   0.0000
     0.0000   0.0000   0.0000   0.0000   0.0000   0.0000   0.0000   0.0000

          k = 0.0833 0.5292 0.0000 (  2728 PWs)   bands (ev):

   -16.4024 -14.3042  -8.6389  -4.1884   0.2319   6.3890   8.3034   9.1224
     9.5059  10.8443  11.0303  11.7461  12.1539  12.2037  13.3528  14.6171
    14.7057  16.1189  16.4439  17.1281  18.6402  18.7617  20.6068  20.6762
    21.6325  22.0865  22.1938  23.2291  23.4482  24.2911  24.8215  25.7025
    25.8186  26.3670  28.1615  29.4141  29.6000  29.9884  30.6410  31.1429
    31.4623  31.7629  32.6287  33.6358  33.7848  35.0107  35.4100  36.1628
    36.6679  37.6726  38.1355  38.8233  39.5903  41.1263  41.6730  43.0095

     occupation numbers 
     1.0000   1.0000   1.0000   1.0000   0.0000   0.0000   0.0000   0.0000
     0.0000   0.0000   0.0000   0.0000   0.0000   0.0000   0.0000   0.0000
     0.0000   0.0000   0.0000   0.0000   0.0000   0.0000   0.0000   0.0000
     0.0000   0.0000   0.0000   0.0000   0.0000   0.0000   0.0000   0.0000
     0.0000   0.0000   0.0000   0.0000   0.0000   0.0000   0.0000   0.0000
     0.0000   0.0000   0.0000   0.0000   0.0000   0.0000   0.0000   0.0000
     0.0000   0.0000   0.0000   0.0000   0.0000   0.0000   0.0000   0.0000

          k = 0.0833 0.6255 0.0000 (  2728 PWs)   bands (ev):

   -16.4024 -14.3042  -8.6389  -4.1884   0.2319   6.3890   8.3034   9.1224
     9.5059  10.8443  11.0303  11.7461  12.1539  12.2037  13.3528  14.6171
    14.7057  16.1189  16.4439  17.1281  18.6402  18.7617  20.6068  20.6762
    21.6325  22.0865  22.1938  23.2291  23.4482  24.2911  24.8215  25.7025
    25.8186  26.3670  28.1615  29.4141  29.6000  29.9884  30.6410  31.1429
    31.4623  31.7629  32.6287  33.6358  33.7848  35.0107  35.4100  36.1628
    36.6679  37.6726  38.1355  38.8233  39.5903  41.1263  41.6730  43.0095

     occupation numbers 
     1.0000   1.0000   1.0000   1.0000   0.0000   0.0000   0.0000   0.0000
     0.0000   0.0000   0.0000   0.0000   0.0000   0.0000   0.0000   0.0000
     0.0000   0.0000   0.0000   0.0000   0.0000   0.0000   0.0000   0.0000
     0.0000   0.0000   0.0000   0.0000   0.0000   0.0000   0.0000   0.0000
     0.0000   0.0000   0.0000   0.0000   0.0000   0.0000   0.0000   0.0000
     0.0000   0.0000   0.0000   0.0000   0.0000   0.0000   0.0000   0.0000
     0.0000   0.0000   0.0000   0.0000   0.0000   0.0000   0.0000   0.0000

          k = 0.0833 0.7217 0.0000 (  2720 PWs)   bands (ev):

   -17.8792 -12.3655  -8.3106  -5.4947   1.9962   6.0831   6.5750   6.9502
     7.2620   9.0818   9.9924  12.5362  13.0118  14.1518  14.3213  15.0105
    15.7113  15.9301  17.4821  17.6844  19.1835  19.2664  19.7296  20.9999
    22.3930  22.8469  23.1068  23.6883  23.9198  24.9546  25.6382  26.0971
    26.4611  27.8033  28.0801  29.0607  30.0653  30.1684  31.1271  31.8628
    31.9452  32.8512  33.6616  34.3623  35.1093  35.4699  35.7126  36.1916
    36.5814  37.7120  38.0470  39.2187  39.4661  41.9905  42.7652  42.9293

     occupation numbers 
     1.0000   1.0000   1.0000   1.0000   0.0000   0.0000   0.0000   0.0000
     0.0000   0.0000   0.0000   0.0000   0.0000   0.0000   0.0000   0.0000
     0.0000   0.0000   0.0000   0.0000   0.0000   0.0000   0.0000   0.0000
     0.0000   0.0000   0.0000   0.0000   0.0000   0.0000   0.0000   0.0000
     0.0000   0.0000   0.0000   0.0000   0.0000   0.0000   0.0000   0.0000
     0.0000   0.0000   0.0000   0.0000   0.0000   0.0000   0.0000   0.0000
     0.0000   0.0000   0.0000   0.0000   0.0000   0.0000   0.0000   0.0000

          k = 0.0833 0.8179 0.0000 (  2711 PWs)   bands (ev):

   -19.1381 -10.2443  -7.6760  -6.8716   4.1897   4.3237   5.1835   5.4429
     6.8455   7.3541   8.2304  11.1740  11.7956  12.4525  15.1675  15.3440
    17.5236  18.0490  18.4284  19.3030  19.3565  21.0547  21.9668  22.6938
    23.2711  23.9159  24.3165  24.7813  24.8128  25.8448  26.4846  26.9609
    27.0656  27.8061  29.8895  31.0274  31.1339  31.8790  32.3240  32.5215
    32.8833  32.9146  33.9401  34.0174  35.4226  35.6048  37.2735  37.2748
    38.2776  39.0292  39.2456  39.2789  40.9706  41.2939  41.6857  42.0318

     occupation numbers 
     1.0000   1.0000   1.0000   1.0000   0.0000   0.0000   0.0000   0.0000
     0.0000   0.0000   0.0000   0.0000   0.0000   0.0000   0.0000   0.0000
     0.0000   0.0000   0.0000   0.0000   0.0000   0.0000   0.0000   0.0000
     0.0000   0.0000   0.0000   0.0000   0.0000   0.0000   0.0000   0.0000
     0.0000   0.0000   0.0000   0.0000   0.0000   0.0000   0.0000   0.0000
     0.0000   0.0000   0.0000   0.0000   0.0000   0.0000   0.0000   0.0000
     0.0000   0.0000   0.0000   0.0000   0.0000   0.0000   0.0000   0.0000

          k = 0.0833 0.9141 0.0000 (  2702 PWs)   bands (ev):

   -20.1019  -8.1722  -7.9856  -6.7901   2.9858   3.8169   4.0884   6.0145
     6.3719   6.8133   7.1674   9.6859   9.9495  11.1339  13.3937  15.0417
    16.8150  18.7504  21.8409  22.2596  22.6799  22.9924  23.6684  24.0159
    24.2103  25.2710  26.0294  26.1286  26.3494  26.6064  28.1561  28.8518
    28.9928  30.4624  30.5503  31.3002  32.3845  32.5460  33.3660  33.4793
    34.1575  34.2837  35.2825  35.9141  36.4722  36.8130  37.7720  38.2662
    38.4358  38.7188  39.6145  39.8365  40.1917  40.7998  41.2421  41.4386

     occupation numbers 
     1.0000   1.0000   1.0000   1.0000   0.0000   0.0000   0.0000   0.0000
     0.0000   0.0000   0.0000   0.0000   0.0000   0.0000   0.0000   0.0000
     0.0000   0.0000   0.0000   0.0000   0.0000   0.0000   0.0000   0.0000
     0.0000   0.0000   0.0000   0.0000   0.0000   0.0000   0.0000   0.0000
     0.0000   0.0000   0.0000   0.0000   0.0000   0.0000   0.0000   0.0000
     0.0000   0.0000   0.0000   0.0000   0.0000   0.0000   0.0000   0.0000
     0.0000   0.0000   0.0000   0.0000   0.0000   0.0000   0.0000   0.0000

          k = 0.0833 1.0104 0.0000 (  2691 PWs)   bands (ev):

   -20.7516  -8.7523  -6.4626  -5.7928   2.0912   2.9199   3.1840   5.1423
     5.9723   6.9723   8.1026   8.1657   9.1015  10.2505  11.8022  14.3762
    15.9562  20.3586  22.0342  22.5762  23.1414  24.5185  26.6066  27.0260
    27.7249  27.8185  27.9435  27.9988  28.0587  29.8735  30.3466  30.5025
    30.7209  31.3360  31.5749  33.2975  34.2702  34.4001  34.6762  34.8676
    34.9626  35.3712  36.0283  36.1292  36.1307  36.3887  37.5556  38.4224
    38.5573  38.5580  38.6184  39.6870  40.1078  40.2463  40.2988  41.0676

     occupation numbers 
     1.0000   1.0000   1.0000   1.0000   0.0000   0.0000   0.0000   0.0000
     0.0000   0.0000   0.0000   0.0000   0.0000   0.0000   0.0000   0.0000
     0.0000   0.0000   0.0000   0.0000   0.0000   0.0000   0.0000   0.0000
     0.0000   0.0000   0.0000   0.0000   0.0000   0.0000   0.0000   0.0000
     0.0000   0.0000   0.0000   0.0000   0.0000   0.0000   0.0000   0.0000
     0.0000   0.0000   0.0000   0.0000   0.0000   0.0000   0.0000   0.0000
     0.0000   0.0000   0.0000   0.0000   0.0000   0.0000   0.0000   0.0000

          k = 0.0833 1.1066 0.0000 (  2671 PWs)   bands (ev):

   -21.0783  -9.1413  -5.4287  -5.1160   1.6435   2.4698   2.7318   4.6978
     5.5328   6.6675   7.2909   8.6711   9.1217   9.8040  11.0549  13.9922
    15.5198  20.4783  21.2612  22.6777  24.7384  25.2018  27.4163  28.9757
    29.8490  30.1182  30.3782  31.1593  31.2099  31.4945  31.9582  32.4914
    32.7479  32.7638  33.0687  33.0851  33.1467  34.5518  35.1775  35.2599
    35.5227  35.7749  36.5669  36.5754  36.6422  37.5791  38.1928  38.2113
    38.4359  38.4878  38.6549  39.1653  39.2591  39.6865  39.7388  40.3095

     occupation numbers 
     1.0000   1.0000   1.0000   1.0000   0.0000   0.0000   0.0000   0.0000
     0.0000   0.0000   0.0000   0.0000   0.0000   0.0000   0.0000   0.0000
     0.0000   0.0000   0.0000   0.0000   0.0000   0.0000   0.0000   0.0000
     0.0000   0.0000   0.0000   0.0000   0.0000   0.0000   0.0000   0.0000
     0.0000   0.0000   0.0000   0.0000   0.0000   0.0000   0.0000   0.0000
     0.0000   0.0000   0.0000   0.0000   0.0000   0.0000   0.0000   0.0000
     0.0000   0.0000   0.0000   0.0000   0.0000   0.0000   0.0000   0.0000

          k = 0.1667 0.0962 0.0000 (  2699 PWs)   bands (ev):

   -20.5886  -8.5593  -7.0662  -5.9078   2.3147   3.1445   3.4099   5.3630
     6.1744   6.6426   7.6174   9.1292   9.3200  10.4696  12.0272  14.5680
    16.1728  20.2742  22.2256  22.4947  23.3677  23.3850  24.5747  25.5009
    25.5512  27.4669  28.2105  28.8272  29.1827  29.9278  30.0232  30.6947
    30.8968  31.0053  31.5435  31.7940  32.3095  32.3887  33.2273  33.2451
    33.8138  33.9248  34.9629  36.8329  37.2334  37.5613  37.7569  37.7693
    38.2147  39.1305  39.6258  40.4332  40.7648  41.2878  41.5713  41.8453

     occupation numbers 
     1.0000   1.0000   1.0000   1.0000   0.0000   0.0000   0.0000   0.0000
     0.0000   0.0000   0.0000   0.0000   0.0000   0.0000   0.0000   0.0000
     0.0000   0.0000   0.0000   0.0000   0.0000   0.0000   0.0000   0.0000
     0.0000   0.0000   0.0000   0.0000   0.0000   0.0000   0.0000   0.0000
     0.0000   0.0000   0.0000   0.0000   0.0000   0.0000   0.0000   0.0000
     0.0000   0.0000   0.0000   0.0000   0.0000   0.0000   0.0000   0.0000
     0.0000   0.0000   0.0000   0.0000   0.0000   0.0000   0.0000   0.0000

          k = 0.1667 0.1925 0.0000 (  2702 PWs)   bands (ev):

   -20.1019  -8.1722  -7.9856  -6.7901   2.9858   3.8169   4.0884   6.0145
     6.3719   6.8133   7.1674   9.6859   9.9495  11.1339  13.3937  15.0417
    16.8150  18.7504  21.8409  22.2596  22.6799  22.9924  23.6684  24.0159
    24.2103  25.2710  26.0294  26.1286  26.3494  26.6064  28.1561  28.8518
    28.9928  30.4624  30.5503  31.3002  32.3845  32.5460  33.3660  33.4793
    34.1575  34.2837  35.2825  35.9141  36.4722  36.8130  37.7720  38.2662
    38.4358  38.7188  39.6145  39.8365  40.1917  40.7998  41.2421  41.4386

     occupation numbers 
     1.0000   1.0000   1.0000   1.0000   0.0000   0.0000   0.0000   0.0000
     0.0000   0.0000   0.0000   0.0000   0.0000   0.0000   0.0000   0.0000
     0.0000   0.0000   0.0000   0.0000   0.0000   0.0000   0.0000   0.0000
     0.0000   0.0000   0.0000   0.0000   0.0000   0.0000   0.0000   0.0000
     0.0000   0.0000   0.0000   0.0000   0.0000   0.0000   0.0000   0.0000
     0.0000   0.0000   0.0000   0.0000   0.0000   0.0000   0.0000   0.0000
     0.0000   0.0000   0.0000   0.0000   0.0000   0.0000   0.0000   0.0000

          k = 0.1667 0.2887 0.0000 (  2711 PWs)   bands (ev):

   -19.2981  -9.5030  -8.1505  -7.0501   4.1024   4.6460   4.9324   5.2191
     7.1161   7.9285   8.3600   9.7952  10.9337  12.2271  15.0355  15.5767
    17.4621  17.8571  20.4341  20.7660  20.8515  21.5943  21.7732  21.7786
    22.9110  23.1975  23.7025  24.5392  24.6270  24.8263  25.8925  26.3715
    28.5645  28.6925  29.2707  29.2882  29.7012  32.5654  33.5474  33.6880
    34.1945  34.5005  34.8232  36.6559  36.9164  37.6020  38.0178  38.0518
    38.1820  39.1530  40.0687  40.1554  40.1707  40.7636  41.0314  41.2254

     occupation numbers 
     1.0000   1.0000   1.0000   1.0000   0.0000   0.0000   0.0000   0.0000
     0.0000   0.0000   0.0000   0.0000   0.0000   0.0000   0.0000   0.0000
     0.0000   0.0000   0.0000   0.0000   0.0000   0.0000   0.0000   0.0000
     0.0000   0.0000   0.0000   0.0000   0.0000   0.0000   0.0000   0.0000
     0.0000   0.0000   0.0000   0.0000   0.0000   0.0000   0.0000   0.0000
     0.0000   0.0000   0.0000   0.0000   0.0000   0.0000   0.0000   0.0000
     0.0000   0.0000   0.0000   0.0000   0.0000   0.0000   0.0000   0.0000

          k = 0.1667 0.3849 0.0000 (  2721 PWs)   bands (ev):

   -18.1915 -11.2292  -9.2064  -5.7993   2.7027   5.6574   6.4749   6.7989
     8.4903   8.5949   9.5601  11.2441  11.9454  13.7326  14.1865  16.4440
    17.5254  17.5645  18.4581  18.5235  19.2223  19.5494  19.6557  20.5407
    20.7128  20.9560  22.3022  23.1387  23.7678  24.1928  24.8056  25.4141
    26.4870  27.2047  27.9800  28.0971  30.2240  30.8002  32.0506  32.6943
    33.1528  35.1269  35.2197  35.7640  36.7147  36.8756  37.3280  37.5562
    39.0241  39.0737  39.8427  40.2873  40.5865  41.1545  42.0897  42.2091

     occupation numbers 
     1.0000   1.0000   1.0000   1.0000   0.0000   0.0000   0.0000   0.0000
     0.0000   0.0000   0.0000   0.0000   0.0000   0.0000   0.0000   0.0000
     0.0000   0.0000   0.0000   0.0000   0.0000   0.0000   0.0000   0.0000
     0.0000   0.0000   0.0000   0.0000   0.0000   0.0000   0.0000   0.0000
     0.0000   0.0000   0.0000   0.0000   0.0000   0.0000   0.0000   0.0000
     0.0000   0.0000   0.0000   0.0000   0.0000   0.0000   0.0000   0.0000
     0.0000   0.0000   0.0000   0.0000   0.0000   0.0000   0.0000   0.0000

          k = 0.1667 0.4811 0.0000 (  2742 PWs)   bands (ev):

   -16.8175 -13.1378  -9.7824  -4.3755   0.7948   7.6273   8.2947   8.3768
     8.8358  10.2509  11.5013  12.0850  12.1158  13.9902  14.1993  15.0199
    15.2634  15.6349  16.7000  17.3132  18.7110  19.4041  19.7972  20.0058
    20.1870  20.6693  20.7169  22.1243  22.3707  22.6120  24.0144  24.5904
    26.0702  26.8625  27.2012  27.5260  28.8373  29.3665  31.6148  32.3773
    32.9712  34.4050  34.7902  35.5760  36.1647  36.2434  37.2016  37.3788
    38.1676  38.9491  39.6492  39.8554  40.2957  41.7648  42.6115  42.7176

     occupation numbers 
     1.0000   1.0000   1.0000   1.0000   0.0000   0.0000   0.0000   0.0000
     0.0000   0.0000   0.0000   0.0000   0.0000   0.0000   0.0000   0.0000
     0.0000   0.0000   0.0000   0.0000   0.0000   0.0000   0.0000   0.0000
     0.0000   0.0000   0.0000   0.0000   0.0000   0.0000   0.0000   0.0000
     0.0000   0.0000   0.0000   0.0000   0.0000   0.0000   0.0000   0.0000
     0.0000   0.0000   0.0000   0.0000   0.0000   0.0000   0.0000   0.0000
     0.0000   0.0000   0.0000   0.0000   0.0000   0.0000   0.0000   0.0000

          k = 0.1667 0.5774 0.0000 (  2741 PWs)   bands (ev):

   -15.5873 -14.5683  -9.9673  -3.4849  -0.2707   8.1954   9.8588   9.8924
    10.0734  11.0190  11.2664  11.3036  11.9605  13.2108  13.6717  13.8644
    14.3799  16.1348  17.1248  17.5139  17.8630  18.5447  18.7342  19.6161
    19.6241  21.2083  21.3598  21.7064  22.4248  22.4629  23.3178  24.5276
    25.2610  25.8159  26.7069  27.2464  29.0620  31.1027  31.3771  31.5804
    32.1737  32.3521  34.5528  35.8640  35.9264  36.6295  37.2397  37.6059
    38.8174  39.0131  39.7453  39.8373  40.1554  40.9010  42.3060  42.6194

     occupation numbers 
     1.0000   1.0000   1.0000   1.0000   0.0000   0.0000   0.0000   0.0000
     0.0000   0.0000   0.0000   0.0000   0.0000   0.0000   0.0000   0.0000
     0.0000   0.0000   0.0000   0.0000   0.0000   0.0000   0.0000   0.0000
     0.0000   0.0000   0.0000   0.0000   0.0000   0.0000   0.0000   0.0000
     0.0000   0.0000   0.0000   0.0000   0.0000   0.0000   0.0000   0.0000
     0.0000   0.0000   0.0000   0.0000   0.0000   0.0000   0.0000   0.0000
     0.0000   0.0000   0.0000   0.0000   0.0000   0.0000   0.0000   0.0000

          k = 0.1667 0.6736 0.0000 (  2742 PWs)   bands (ev):

   -16.8175 -13.1378  -9.7824  -4.3755   0.7948   7.6273   8.2947   8.3768
     8.8358  10.2509  11.5013  12.0850  12.1158  13.9902  14.1993  15.0199
    15.2634  15.6349  16.7000  17.3132  18.7110  19.4041  19.7972  20.0058
    20.1870  20.6693  20.7169  22.1243  22.3707  22.6120  24.0144  24.5904
    26.0702  26.8625  27.2012  27.5260  28.8373  29.3665  31.6148  32.3773
    32.9712  34.4050  34.7902  35.5760  36.1647  36.2434  37.2016  37.3788
    38.1676  38.9491  39.6492  39.8554  40.2957  41.7648  42.6115  42.7176

     occupation numbers 
     1.0000   1.0000   1.0000   1.0000   0.0000   0.0000   0.0000   0.0000
     0.0000   0.0000   0.0000   0.0000   0.0000   0.0000   0.0000   0.0000
     0.0000   0.0000   0.0000   0.0000   0.0000   0.0000   0.0000   0.0000
     0.0000   0.0000   0.0000   0.0000   0.0000   0.0000   0.0000   0.0000
     0.0000   0.0000   0.0000   0.0000   0.0000   0.0000   0.0000   0.0000
     0.0000   0.0000   0.0000   0.0000   0.0000   0.0000   0.0000   0.0000
     0.0000   0.0000   0.0000   0.0000   0.0000   0.0000   0.0000   0.0000

          k = 0.1667 0.7698 0.0000 (  2721 PWs)   bands (ev):

   -18.1915 -11.2292  -9.2064  -5.7993   2.7027   5.6574   6.4749   6.7989
     8.4903   8.5949   9.5601  11.2441  11.9454  13.7326  14.1865  16.4440
    17.5254  17.5645  18.4581  18.5235  19.2223  19.5494  19.6557  20.5407
    20.7128  20.9560  22.3022  23.1387  23.7678  24.1928  24.8056  25.4141
    26.4870  27.2047  27.9800  28.0971  30.2240  30.8002  32.0506  32.6943
    33.1528  35.1269  35.2197  35.7640  36.7147  36.8756  37.3280  37.5562
    39.0241  39.0737  39.8427  40.2873  40.5865  41.1545  42.0897  42.2091

     occupation numbers 
     1.0000   1.0000   1.0000   1.0000   0.0000   0.0000   0.0000   0.0000
     0.0000   0.0000   0.0000   0.0000   0.0000   0.0000   0.0000   0.0000
     0.0000   0.0000   0.0000   0.0000   0.0000   0.0000   0.0000   0.0000
     0.0000   0.0000   0.0000   0.0000   0.0000   0.0000   0.0000   0.0000
     0.0000   0.0000   0.0000   0.0000   0.0000   0.0000   0.0000   0.0000
     0.0000   0.0000   0.0000   0.0000   0.0000   0.0000   0.0000   0.0000
     0.0000   0.0000   0.0000   0.0000   0.0000   0.0000   0.0000   0.0000

          k = 0.1667 0.8660 0.0000 (  2711 PWs)   bands (ev):

   -19.2981  -9.5030  -8.1505  -7.0501   4.1024   4.6460   4.9324   5.2191
     7.1161   7.9285   8.3600   9.7952  10.9337  12.2271  15.0355  15.5767
    17.4621  17.8571  20.4341  20.7660  20.8515  21.5943  21.7732  21.7786
    22.9110  23.1975  23.7025  24.5392  24.6270  24.8263  25.8925  26.3715
    28.5645  28.6925  29.2707  29.2882  29.7012  32.5654  33.5474  33.6880
[...]
    17.5254  17.5645  18.4581  18.5235  19.2223  19.5494  19.6557  20.5407
    20.7128  20.9560  22.3022  23.1387  23.7678  24.1928  24.8056  25.4141
    26.4870  27.2047  27.9800  28.0971  30.2240  30.8002  32.0506  32.6943
    33.1528  35.1269  35.2197  35.7640  36.7147  36.8756  37.3280  37.5562
    39.0241  39.0737  39.8427  40.2873  40.5865  41.1545  42.0897  42.2091

     occupation numbers 
     1.0000   1.0000   1.0000   1.0000   0.0000   0.0000   0.0000   0.0000
     0.0000   0.0000   0.0000   0.0000   0.0000   0.0000   0.0000   0.0000
     0.0000   0.0000   0.0000   0.0000   0.0000   0.0000   0.0000   0.0000
     0.0000   0.0000   0.0000   0.0000   0.0000   0.0000   0.0000   0.0000
     0.0000   0.0000   0.0000   0.0000   0.0000   0.0000   0.0000   0.0000
     0.0000   0.0000   0.0000   0.0000   0.0000   0.0000   0.0000   0.0000
     0.0000   0.0000   0.0000   0.0000   0.0000   0.0000   0.0000   0.0000

          k = 0.8333 1.4434 0.0000 (  2711 PWs)   bands (ev):

   -19.2981  -9.5030  -8.1505  -7.0501   4.1024   4.6460   4.9324   5.2191
     7.1161   7.9285   8.3600   9.7952  10.9337  12.2271  15.0355  15.5767
    17.4621  17.8571  20.4341  20.7660  20.8515  21.5943  21.7732  21.7786
    22.9110  23.1975  23.7025  24.5392  24.6270  24.8263  25.8925  26.3715
    28.5645  28.6925  29.2707  29.2882  29.7012  32.5654  33.5474  33.6880
    34.1945  34.5005  34.8232  36.6559  36.9164  37.6020  38.0178  38.0518
    38.1820  39.1530  40.0687  40.1554  40.1707  40.7636  41.0314  41.2254

     occupation numbers 
     1.0000   1.0000   1.0000   1.0000   0.0000   0.0000   0.0000   0.0000
     0.0000   0.0000   0.0000   0.0000   0.0000   0.0000   0.0000   0.0000
     0.0000   0.0000   0.0000   0.0000   0.0000   0.0000   0.0000   0.0000
     0.0000   0.0000   0.0000   0.0000   0.0000   0.0000   0.0000   0.0000
     0.0000   0.0000   0.0000   0.0000   0.0000   0.0000   0.0000   0.0000
     0.0000   0.0000   0.0000   0.0000   0.0000   0.0000   0.0000   0.0000
     0.0000   0.0000   0.0000   0.0000   0.0000   0.0000   0.0000   0.0000

          k = 0.8333 1.5396 0.0000 (  2702 PWs)   bands (ev):

   -20.1019  -8.1722  -7.9856  -6.7901   2.9858   3.8169   4.0884   6.0145
     6.3719   6.8133   7.1674   9.6859   9.9495  11.1339  13.3937  15.0417
    16.8150  18.7504  21.8409  22.2596  22.6799  22.9924  23.6684  24.0159
    24.2103  25.2710  26.0294  26.1286  26.3494  26.6064  28.1561  28.8518
    28.9928  30.4624  30.5503  31.3002  32.3845  32.5460  33.3660  33.4793
    34.1575  34.2837  35.2825  35.9141  36.4722  36.8130  37.7720  38.2662
    38.4358  38.7188  39.6145  39.8365  40.1917  40.7998  41.2421  41.4386

     occupation numbers 
     1.0000   1.0000   1.0000   1.0000   0.0000   0.0000   0.0000   0.0000
     0.0000   0.0000   0.0000   0.0000   0.0000   0.0000   0.0000   0.0000
     0.0000   0.0000   0.0000   0.0000   0.0000   0.0000   0.0000   0.0000
     0.0000   0.0000   0.0000   0.0000   0.0000   0.0000   0.0000   0.0000
     0.0000   0.0000   0.0000   0.0000   0.0000   0.0000   0.0000   0.0000
     0.0000   0.0000   0.0000   0.0000   0.0000   0.0000   0.0000   0.0000
     0.0000   0.0000   0.0000   0.0000   0.0000   0.0000   0.0000   0.0000

          k = 0.9167 0.5292 0.0000 (  2671 PWs)   bands (ev):

   -21.0783  -9.1413  -5.4287  -5.1160   1.6435   2.4698   2.7318   4.6978
     5.5328   6.6675   7.2909   8.6711   9.1217   9.8040  11.0549  13.9922
    15.5198  20.4783  21.2612  22.6777  24.7384  25.2018  27.4163  28.9757
    29.8490  30.1182  30.3782  31.1593  31.2099  31.4945  31.9582  32.4914
    32.7479  32.7638  33.0687  33.0851  33.1467  34.5518  35.1775  35.2599
    35.5227  35.7749  36.5669  36.5754  36.6422  37.5791  38.1928  38.2113
    38.4359  38.4878  38.6549  39.1653  39.2591  39.6865  39.7388  40.3095

     occupation numbers 
     1.0000   1.0000   1.0000   1.0000   0.0000   0.0000   0.0000   0.0000
     0.0000   0.0000   0.0000   0.0000   0.0000   0.0000   0.0000   0.0000
     0.0000   0.0000   0.0000   0.0000   0.0000   0.0000   0.0000   0.0000
     0.0000   0.0000   0.0000   0.0000   0.0000   0.0000   0.0000   0.0000
     0.0000   0.0000   0.0000   0.0000   0.0000   0.0000   0.0000   0.0000
     0.0000   0.0000   0.0000   0.0000   0.0000   0.0000   0.0000   0.0000
     0.0000   0.0000   0.0000   0.0000   0.0000   0.0000   0.0000   0.0000

          k = 0.9167 0.6255 0.0000 (  2671 PWs)   bands (ev):

   -21.0783  -9.1413  -5.4287  -5.1160   1.6435   2.4698   2.7318   4.6978
     5.5328   6.6675   7.2909   8.6711   9.1217   9.8040  11.0549  13.9922
    15.5198  20.4783  21.2612  22.6777  24.7384  25.2018  27.4163  28.9757
    29.8490  30.1182  30.3782  31.1593  31.2099  31.4945  31.9582  32.4914
    32.7479  32.7638  33.0687  33.0851  33.1467  34.5518  35.1775  35.2599
    35.5227  35.7749  36.5669  36.5754  36.6422  37.5791  38.1928  38.2113
    38.4359  38.4878  38.6549  39.1653  39.2591  39.6865  39.7388  40.3095

     occupation numbers 
     1.0000   1.0000   1.0000   1.0000   0.0000   0.0000   0.0000   0.0000
     0.0000   0.0000   0.0000   0.0000   0.0000   0.0000   0.0000   0.0000
     0.0000   0.0000   0.0000   0.0000   0.0000   0.0000   0.0000   0.0000
     0.0000   0.0000   0.0000   0.0000   0.0000   0.0000   0.0000   0.0000
     0.0000   0.0000   0.0000   0.0000   0.0000   0.0000   0.0000   0.0000
     0.0000   0.0000   0.0000   0.0000   0.0000   0.0000   0.0000   0.0000
     0.0000   0.0000   0.0000   0.0000   0.0000   0.0000   0.0000   0.0000

          k = 0.9167 0.7217 0.0000 (  2691 PWs)   bands (ev):

   -20.7516  -8.7523  -6.4626  -5.7928   2.0912   2.9199   3.1840   5.1423
     5.9723   6.9723   8.1026   8.1657   9.1015  10.2505  11.8022  14.3762
    15.9562  20.3586  22.0342  22.5762  23.1414  24.5185  26.6066  27.0260
    27.7249  27.8185  27.9435  27.9988  28.0587  29.8735  30.3466  30.5025
    30.7209  31.3360  31.5749  33.2975  34.2702  34.4001  34.6762  34.8676
    34.9626  35.3712  36.0283  36.1292  36.1307  36.3887  37.5556  38.4224
    38.5573  38.5580  38.6184  39.6870  40.1078  40.2463  40.2988  41.0676

     occupation numbers 
     1.0000   1.0000   1.0000   1.0000   0.0000   0.0000   0.0000   0.0000
     0.0000   0.0000   0.0000   0.0000   0.0000   0.0000   0.0000   0.0000
     0.0000   0.0000   0.0000   0.0000   0.0000   0.0000   0.0000   0.0000
     0.0000   0.0000   0.0000   0.0000   0.0000   0.0000   0.0000   0.0000
     0.0000   0.0000   0.0000   0.0000   0.0000   0.0000   0.0000   0.0000
     0.0000   0.0000   0.0000   0.0000   0.0000   0.0000   0.0000   0.0000
     0.0000   0.0000   0.0000   0.0000   0.0000   0.0000   0.0000   0.0000

          k = 0.9167 0.8179 0.0000 (  2702 PWs)   bands (ev):

   -20.1019  -8.1722  -7.9856  -6.7901   2.9858   3.8169   4.0884   6.0145
     6.3719   6.8133   7.1674   9.6859   9.9495  11.1339  13.3937  15.0417
    16.8150  18.7504  21.8409  22.2596  22.6799  22.9924  23.6684  24.0159
    24.2103  25.2710  26.0294  26.1286  26.3494  26.6064  28.1561  28.8518
    28.9928  30.4624  30.5503  31.3002  32.3845  32.5460  33.3660  33.4793
    34.1575  34.2837  35.2825  35.9141  36.4722  36.8130  37.7720  38.2662
    38.4358  38.7188  39.6145  39.8365  40.1917  40.7998  41.2421  41.4386

     occupation numbers 
     1.0000   1.0000   1.0000   1.0000   0.0000   0.0000   0.0000   0.0000
     0.0000   0.0000   0.0000   0.0000   0.0000   0.0000   0.0000   0.0000
     0.0000   0.0000   0.0000   0.0000   0.0000   0.0000   0.0000   0.0000
     0.0000   0.0000   0.0000   0.0000   0.0000   0.0000   0.0000   0.0000
     0.0000   0.0000   0.0000   0.0000   0.0000   0.0000   0.0000   0.0000
     0.0000   0.0000   0.0000   0.0000   0.0000   0.0000   0.0000   0.0000
     0.0000   0.0000   0.0000   0.0000   0.0000   0.0000   0.0000   0.0000

          k = 0.9167 0.9141 0.0000 (  2711 PWs)   bands (ev):

   -19.1381 -10.2443  -7.6760  -6.8716   4.1897   4.3237   5.1835   5.4429
     6.8455   7.3541   8.2304  11.1740  11.7956  12.4525  15.1675  15.3440
    17.5236  18.0490  18.4284  19.3030  19.3565  21.0547  21.9668  22.6938
    23.2711  23.9159  24.3165  24.7813  24.8128  25.8448  26.4846  26.9609
    27.0656  27.8061  29.8895  31.0274  31.1339  31.8790  32.3240  32.5215
    32.8833  32.9146  33.9401  34.0174  35.4226  35.6048  37.2735  37.2748
    38.2776  39.0292  39.2456  39.2789  40.9706  41.2939  41.6857  42.0318

     occupation numbers 
     1.0000   1.0000   1.0000   1.0000   0.0000   0.0000   0.0000   0.0000
     0.0000   0.0000   0.0000   0.0000   0.0000   0.0000   0.0000   0.0000
     0.0000   0.0000   0.0000   0.0000   0.0000   0.0000   0.0000   0.0000
     0.0000   0.0000   0.0000   0.0000   0.0000   0.0000   0.0000   0.0000
     0.0000   0.0000   0.0000   0.0000   0.0000   0.0000   0.0000   0.0000
     0.0000   0.0000   0.0000   0.0000   0.0000   0.0000   0.0000   0.0000
     0.0000   0.0000   0.0000   0.0000   0.0000   0.0000   0.0000   0.0000

          k = 0.9167 1.0104 0.0000 (  2720 PWs)   bands (ev):

   -17.8792 -12.3655  -8.3106  -5.4947   1.9962   6.0831   6.5750   6.9502
     7.2620   9.0818   9.9924  12.5362  13.0118  14.1518  14.3213  15.0105
    15.7113  15.9301  17.4821  17.6844  19.1835  19.2664  19.7296  20.9999
    22.3930  22.8469  23.1068  23.6883  23.9198  24.9546  25.6382  26.0971
    26.4611  27.8033  28.0801  29.0607  30.0653  30.1684  31.1271  31.8628
    31.9452  32.8512  33.6616  34.3623  35.1093  35.4699  35.7126  36.1916
    36.5814  37.7120  38.0470  39.2187  39.4661  41.9905  42.7652  42.9293

     occupation numbers 
     1.0000   1.0000   1.0000   1.0000   0.0000   0.0000   0.0000   0.0000
     0.0000   0.0000   0.0000   0.0000   0.0000   0.0000   0.0000   0.0000
     0.0000   0.0000   0.0000   0.0000   0.0000   0.0000   0.0000   0.0000
     0.0000   0.0000   0.0000   0.0000   0.0000   0.0000   0.0000   0.0000
     0.0000   0.0000   0.0000   0.0000   0.0000   0.0000   0.0000   0.0000
     0.0000   0.0000   0.0000   0.0000   0.0000   0.0000   0.0000   0.0000
     0.0000   0.0000   0.0000   0.0000   0.0000   0.0000   0.0000   0.0000

          k = 0.9167 1.1066 0.0000 (  2728 PWs)   bands (ev):

   -16.4024 -14.3042  -8.6389  -4.1884   0.2319   6.3890   8.3034   9.1224
     9.5059  10.8443  11.0303  11.7461  12.1539  12.2037  13.3528  14.6171
    14.7057  16.1189  16.4439  17.1281  18.6402  18.7617  20.6068  20.6762
    21.6325  22.0865  22.1938  23.2291  23.4482  24.2911  24.8215  25.7025
    25.8186  26.3670  28.1615  29.4141  29.6000  29.9884  30.6410  31.1429
    31.4623  31.7629  32.6287  33.6358  33.7848  35.0107  35.4100  36.1628
    36.6679  37.6726  38.1355  38.8233  39.5903  41.1263  41.6730  43.0095

     occupation numbers 
     1.0000   1.0000   1.0000   1.0000   0.0000   0.0000   0.0000   0.0000
     0.0000   0.0000   0.0000   0.0000   0.0000   0.0000   0.0000   0.0000
     0.0000   0.0000   0.0000   0.0000   0.0000   0.0000   0.0000   0.0000
     0.0000   0.0000   0.0000   0.0000   0.0000   0.0000   0.0000   0.0000
     0.0000   0.0000   0.0000   0.0000   0.0000   0.0000   0.0000   0.0000
     0.0000   0.0000   0.0000   0.0000   0.0000   0.0000   0.0000   0.0000
     0.0000   0.0000   0.0000   0.0000   0.0000   0.0000   0.0000   0.0000

          k = 0.9167 1.2028 0.0000 (  2728 PWs)   bands (ev):

   -16.4024 -14.3042  -8.6389  -4.1884   0.2319   6.3890   8.3034   9.1224
     9.5059  10.8443  11.0303  11.7461  12.1539  12.2037  13.3528  14.6171
    14.7057  16.1189  16.4439  17.1281  18.6402  18.7617  20.6068  20.6762
    21.6325  22.0865  22.1938  23.2291  23.4482  24.2911  24.8215  25.7025
    25.8186  26.3670  28.1615  29.4141  29.6000  29.9884  30.6410  31.1429
    31.4623  31.7629  32.6287  33.6358  33.7848  35.0107  35.4100  36.1628
    36.6679  37.6726  38.1355  38.8233  39.5903  41.1263  41.6730  43.0095

     occupation numbers 
     1.0000   1.0000   1.0000   1.0000   0.0000   0.0000   0.0000   0.0000
     0.0000   0.0000   0.0000   0.0000   0.0000   0.0000   0.0000   0.0000
     0.0000   0.0000   0.0000   0.0000   0.0000   0.0000   0.0000   0.0000
     0.0000   0.0000   0.0000   0.0000   0.0000   0.0000   0.0000   0.0000
     0.0000   0.0000   0.0000   0.0000   0.0000   0.0000   0.0000   0.0000
     0.0000   0.0000   0.0000   0.0000   0.0000   0.0000   0.0000   0.0000
     0.0000   0.0000   0.0000   0.0000   0.0000   0.0000   0.0000   0.0000

          k = 0.9167 1.2990 0.0000 (  2720 PWs)   bands (ev):

   -17.8792 -12.3655  -8.3106  -5.4947   1.9962   6.0831   6.5750   6.9502
     7.2620   9.0818   9.9924  12.5362  13.0118  14.1518  14.3213  15.0105
    15.7113  15.9301  17.4821  17.6844  19.1835  19.2664  19.7296  20.9999
    22.3930  22.8469  23.1068  23.6883  23.9198  24.9546  25.6382  26.0971
    26.4611  27.8033  28.0801  29.0607  30.0653  30.1684  31.1271  31.8628
    31.9452  32.8512  33.6616  34.3623  35.1093  35.4699  35.7126  36.1916
    36.5814  37.7120  38.0470  39.2187  39.4661  41.9905  42.7652  42.9293

     occupation numbers 
     1.0000   1.0000   1.0000   1.0000   0.0000   0.0000   0.0000   0.0000
     0.0000   0.0000   0.0000   0.0000   0.0000   0.0000   0.0000   0.0000
     0.0000   0.0000   0.0000   0.0000   0.0000   0.0000   0.0000   0.0000
     0.0000   0.0000   0.0000   0.0000   0.0000   0.0000   0.0000   0.0000
     0.0000   0.0000   0.0000   0.0000   0.0000   0.0000   0.0000   0.0000
     0.0000   0.0000   0.0000   0.0000   0.0000   0.0000   0.0000   0.0000
     0.0000   0.0000   0.0000   0.0000   0.0000   0.0000   0.0000   0.0000

          k = 0.9167 1.3953 0.0000 (  2711 PWs)   bands (ev):

   -19.1381 -10.2443  -7.6760  -6.8716   4.1897   4.3237   5.1835   5.4429
     6.8455   7.3541   8.2304  11.1740  11.7956  12.4525  15.1675  15.3440
    17.5236  18.0490  18.4284  19.3030  19.3565  21.0547  21.9668  22.6938
    23.2711  23.9159  24.3165  24.7813  24.8128  25.8448  26.4846  26.9609
    27.0656  27.8061  29.8895  31.0274  31.1339  31.8790  32.3240  32.5215
    32.8833  32.9146  33.9401  34.0174  35.4226  35.6048  37.2735  37.2748
    38.2776  39.0292  39.2456  39.2789  40.9706  41.2939  41.6857  42.0318

     occupation numbers 
     1.0000   1.0000   1.0000   1.0000   0.0000   0.0000   0.0000   0.0000
     0.0000   0.0000   0.0000   0.0000   0.0000   0.0000   0.0000   0.0000
     0.0000   0.0000   0.0000   0.0000   0.0000   0.0000   0.0000   0.0000
     0.0000   0.0000   0.0000   0.0000   0.0000   0.0000   0.0000   0.0000
     0.0000   0.0000   0.0000   0.0000   0.0000   0.0000   0.0000   0.0000
     0.0000   0.0000   0.0000   0.0000   0.0000   0.0000   0.0000   0.0000
     0.0000   0.0000   0.0000   0.0000   0.0000   0.0000   0.0000   0.0000

          k = 0.9167 1.4915 0.0000 (  2702 PWs)   bands (ev):

   -20.1019  -8.1722  -7.9856  -6.7901   2.9858   3.8169   4.0884   6.0145
     6.3719   6.8133   7.1674   9.6859   9.9495  11.1339  13.3937  15.0417
    16.8150  18.7504  21.8409  22.2596  22.6799  22.9924  23.6684  24.0159
    24.2103  25.2710  26.0294  26.1286  26.3494  26.6064  28.1561  28.8518
    28.9928  30.4624  30.5503  31.3002  32.3845  32.5460  33.3660  33.4793
    34.1575  34.2837  35.2825  35.9141  36.4722  36.8130  37.7720  38.2662
    38.4358  38.7188  39.6145  39.8365  40.1917  40.7998  41.2421  41.4386

     occupation numbers 
     1.0000   1.0000   1.0000   1.0000   0.0000   0.0000   0.0000   0.0000
     0.0000   0.0000   0.0000   0.0000   0.0000   0.0000   0.0000   0.0000
     0.0000   0.0000   0.0000   0.0000   0.0000   0.0000   0.0000   0.0000
     0.0000   0.0000   0.0000   0.0000   0.0000   0.0000   0.0000   0.0000
     0.0000   0.0000   0.0000   0.0000   0.0000   0.0000   0.0000   0.0000
     0.0000   0.0000   0.0000   0.0000   0.0000   0.0000   0.0000   0.0000
     0.0000   0.0000   0.0000   0.0000   0.0000   0.0000   0.0000   0.0000

          k = 0.9167 1.5877 0.0000 (  2691 PWs)   bands (ev):

   -20.7516  -8.7523  -6.4626  -5.7928   2.0912   2.9199   3.1840   5.1423
     5.9723   6.9723   8.1026   8.1657   9.1015  10.2505  11.8022  14.3762
    15.9562  20.3586  22.0342  22.5762  23.1414  24.5185  26.6066  27.0260
    27.7249  27.8185  27.9435  27.9988  28.0587  29.8735  30.3466  30.5025
    30.7209  31.3360  31.5749  33.2975  34.2702  34.4001  34.6762  34.8676
    34.9626  35.3712  36.0283  36.1292  36.1307  36.3887  37.5556  38.4224
    38.5573  38.5580  38.6184  39.6870  40.1078  40.2463  40.2988  41.0676

     occupation numbers 
     1.0000   1.0000   1.0000   1.0000   0.0000   0.0000   0.0000   0.0000
     0.0000   0.0000   0.0000   0.0000   0.0000   0.0000   0.0000   0.0000
     0.0000   0.0000   0.0000   0.0000   0.0000   0.0000   0.0000   0.0000
     0.0000   0.0000   0.0000   0.0000   0.0000   0.0000   0.0000   0.0000
     0.0000   0.0000   0.0000   0.0000   0.0000   0.0000   0.0000   0.0000
     0.0000   0.0000   0.0000   0.0000   0.0000   0.0000   0.0000   0.0000
     0.0000   0.0000   0.0000   0.0000   0.0000   0.0000   0.0000   0.0000

     the Fermi energy is    -1.7226 ev
     (compare with:    -1.7224 eV, computed in scf)

     Writing all to output data dir ./graphene.save/
 
     init_run     :      3.58s CPU      4.09s WALL (       1 calls)
     electrons    :     19.91s CPU     25.01s WALL (       1 calls)

     Called by init_run:
     wfcinit      :      0.00s CPU      0.00s WALL (       1 calls)
     wfcinit:atom :      0.00s CPU      0.00s WALL (      21 calls)
     wfcinit:wfcr :      0.59s CPU      1.58s WALL (      21 calls)
     potinit      :      1.27s CPU      1.49s WALL (       1 calls)
     hinit0       :      1.09s CPU      1.32s WALL (       1 calls)

     Called by electrons:
     c_bands      :     19.88s CPU     24.96s WALL (       1 calls)
     v_of_rho     :      0.03s CPU      0.04s WALL (       1 calls)
     v_h          :      0.00s CPU      0.00s WALL (       1 calls)
     v_xc         :      0.03s CPU      0.04s WALL (       1 calls)
     newd         :      0.40s CPU      0.41s WALL (       1 calls)
     PAW_pot      :      0.71s CPU      0.89s WALL (       1 calls)

     Called by c_bands:
     init_us_2    :      0.01s CPU      0.01s WALL (      21 calls)
     init_us_2:cp :      0.01s CPU      0.01s WALL (      21 calls)
     cegterg      :     13.30s CPU     16.47s WALL (      44 calls)

     Called by sum_band:

     Called by *egterg:
     cdiaghg      :      3.08s CPU      3.83s WALL (     752 calls)
     cegterg:over :      1.32s CPU      1.47s WALL (     731 calls)
     cegterg:upda :      0.94s CPU      1.04s WALL (     731 calls)
     cegterg:last :      1.78s CPU      1.90s WALL (     374 calls)
     cdiaghg:chol :      0.15s CPU      0.16s WALL (     752 calls)
     cdiaghg:inve :      0.06s CPU      0.06s WALL (     752 calls)
     cdiaghg:para :      0.50s CPU      0.61s WALL (    1504 calls)
     h_psi        :      6.22s CPU      9.16s WALL (     796 calls)
     s_psi        :      0.07s CPU      0.09s WALL (     796 calls)
     g_psi        :      0.08s CPU      0.11s WALL (     731 calls)

     Called by h_psi:
     h_psi:calbec :      0.21s CPU      0.25s WALL (     796 calls)
     vloc_psi     :      5.77s CPU      8.64s WALL (     796 calls)
     add_vuspsi   :      0.15s CPU      0.18s WALL (     796 calls)

     General routines
     calbec       :      0.21s CPU      0.24s WALL (     796 calls)
     fft          :      0.01s CPU      0.22s WALL (      13 calls)
     ffts         :      0.00s CPU      0.00s WALL (       1 calls)
     fftw         :      5.11s CPU      7.63s WALL (   43166 calls)
     interpolate  :      0.00s CPU      0.00s WALL (       1 calls)
     davcio       :      0.01s CPU      0.02s WALL (      42 calls)
 
     Parallel routines

     PAW routines
     PAW_pot      :      0.71s CPU      0.89s WALL (       1 calls)
 
     PWSCF        :     25.08s CPU     36.26s WALL

 
   This run was terminated on:  22:44:58  10Jun2022            

=------------------------------------------------------------------------------=
   JOB DONE.
=------------------------------------------------------------------------------=
