
     Program PWSCF v.7.0 starts on 10Jun2022 at 22:43:50 

     This program is part of the open-source Quantum ESPRESSO suite
     for quantum simulation of materials; please cite
         "P. Giannozzi et al., J. Phys.:Condens. Matter 21 395502 (2009);
         "P. Giannozzi et al., J. Phys.:Condens. Matter 29 465901 (2017);
         "P. Giannozzi et al., J. Chem. Phys. 152 154105 (2020);
          URL http://www.quantum-espresso.org", 
     in publications or presentations arising from this work. More details at
     http://www.quantum-espresso.org/quote

     Parallel version (MPI & OpenMP), running on      28 processor cores
     Number of MPI processes:                28
     Threads/MPI process:                     1

     MPI processes distributed on     1 nodes
     K-points division:     npool     =       7
     R & G space division:  proc/nbgrp/npool/nimage =       4
     55037 MiB available memory on the printing compute node when the environment starts
 
     Waiting for input...
     Reading input from standard input
Warning: card &CELL ignored
Warning: card     CELL_DOFREE    = "IBRAV+2DXY" ignored
Warning: card     CELL_DYNAMICS  = "BFGS" ignored
Warning: card     PRESS_CONV_THR =  0.01 ignored
Warning: card / ignored

     Current dimensions of program PWSCF are:
     Max number of different atomic species (ntypx) = 10
     Max number of k-points (npk) =  40000
     Max angular momentum in pseudopotentials (lmaxx) =  4
     file C.pbe-n-kjpaw_psl.1.0.0.UPF: wavefunction(s)  2S 2P renormalized

     Subspace diagonalization in iterative solution of the eigenvalue problem:
     one sub-group per band group will be used
     scalapack distributed-memory algorithm (size of sub-group:  2*  2 procs)

 
     Parallelization info
     --------------------
     sticks:   dense  smooth     PW     G-vecs:    dense   smooth      PW
     Min         136      66     21                15384     5410     991
     Max         137      67     22                15389     5426    1014
     Sum         547     265     85                61545    21673    3993
 
     Using Slab Decomposition
 


     bravais-lattice index     =            4
     lattice parameter (alat)  =       4.6620  a.u.
     unit-cell volume          =     533.5420 (a.u.)^3
     number of atoms/cell      =            2
     number of atomic types    =            1
     number of electrons       =         8.00
     number of Kohn-Sham states=           84
     kinetic-energy cutoff     =      45.0000  Ry
     charge density cutoff     =     360.0000  Ry
     scf convergence threshold =      1.0E-09
     mixing beta               =       0.7000
     number of iterations used =            8  plain     mixing
     Exchange-correlation= SLA  PW   PBX  PBC
                           (   1   4   3   4   0   0   0)

     celldm(1)=   4.662018  celldm(2)=   0.000000  celldm(3)=   6.080177
     celldm(4)=   0.000000  celldm(5)=   0.000000  celldm(6)=   0.000000

     crystal axes: (cart. coord. in units of alat)
               a(1) = (   1.000000   0.000000   0.000000 )  
               a(2) = (  -0.500000   0.866025   0.000000 )  
               a(3) = (   0.000000   0.000000   6.080177 )  

     reciprocal axes: (cart. coord. in units 2 pi/alat)
               b(1) = (  1.000000  0.577350  0.000000 )  
               b(2) = (  0.000000  1.154701  0.000000 )  
               b(3) = (  0.000000  0.000000  0.164469 )  

Write cell and positions for Wanner90.x
begin unit_cell_cart
Bohr
        4.6620178   0.0000000   0.0000000
       -2.3310089   4.0374259   0.0000000
        0.0000000   0.0000000  28.3458919
end unit_cell_cart

begin atoms_cart
Bohr
        C          -0.0000000   2.6916173  14.1729459
        C           2.3310089   1.3458086  14.1729459
end atoms_cart

     PseudoPot. # 1 for C  read from file:
     ./pseudo/C.pbe-n-kjpaw_psl.1.0.0.UPF
     MD5 check sum: 6fec8efd722f5d988670a8dc528584a2
     Pseudo is Projector augmented-wave + core cor, Zval =  4.0
     Generated using "atomic" code by A. Dal Corso  v.5.1.2
     Shape of augmentation charge: PSQ
     Using radial grid of 1073 points,  4 beta functions with: 
                l(1) =   0
                l(2) =   0
                l(3) =   1
                l(4) =   1
     Q(r) pseudized with 0 coefficients 


     atomic species   valence    mass     pseudopotential
        C              4.00    12.01070     C ( 1.00)

     24 Sym. Ops., with inversion, found


                                    s                        frac. trans.

      isym =  1     identity                                     

 cryst.   s( 1) = (     1          0          0      )
                  (     0          1          0      )
                  (     0          0          1      )

 cart.    s( 1) = (  1.0000000  0.0000000  0.0000000 )
                  (  0.0000000  1.0000000  0.0000000 )
                  (  0.0000000  0.0000000  1.0000000 )


      isym =  2     180 deg rotation - cart. axis [0,0,1]        

 cryst.   s( 2) = (    -1          0          0      )
                  (     0         -1          0      )
                  (     0          0          1      )

 cart.    s( 2) = ( -1.0000000  0.0000000  0.0000000 )
                  (  0.0000000 -1.0000000  0.0000000 )
                  (  0.0000000  0.0000000  1.0000000 )


      isym =  3     180 deg rotation - cart. axis [0,1,0]        

 cryst.   s( 3) = (    -1          0          0      )
                  (     1          1          0      )
                  (     0          0         -1      )

 cart.    s( 3) = ( -1.0000000  0.0000000  0.0000000 )
                  (  0.0000000  1.0000000  0.0000000 )
                  (  0.0000000  0.0000000 -1.0000000 )


      isym =  4     180 deg rotation - cart. axis [1,0,0]        

 cryst.   s( 4) = (     1          0          0      )
                  (    -1         -1          0      )
                  (     0          0         -1      )

 cart.    s( 4) = (  1.0000000  0.0000000  0.0000000 )
                  (  0.0000000 -1.0000000  0.0000000 )
                  (  0.0000000  0.0000000 -1.0000000 )


      isym =  5      60 deg rotation - cryst. axis [0,0,1]       

 cryst.   s( 5) = (     1          1          0      )
                  (    -1          0          0      )
                  (     0          0          1      )

 cart.    s( 5) = (  0.5000000 -0.8660254  0.0000000 )
                  (  0.8660254  0.5000000  0.0000000 )
                  (  0.0000000  0.0000000  1.0000000 )


      isym =  6      60 deg rotation - cryst. axis [0,0,-1]      

 cryst.   s( 6) = (     0         -1          0      )
                  (     1          1          0      )
                  (     0          0          1      )

 cart.    s( 6) = (  0.5000000  0.8660254  0.0000000 )
                  ( -0.8660254  0.5000000  0.0000000 )
                  (  0.0000000  0.0000000  1.0000000 )


      isym =  7     120 deg rotation - cryst. axis [0,0,1]       

 cryst.   s( 7) = (     0          1          0      )
                  (    -1         -1          0      )
                  (     0          0          1      )

 cart.    s( 7) = ( -0.5000000 -0.8660254  0.0000000 )
                  (  0.8660254 -0.5000000  0.0000000 )
                  (  0.0000000  0.0000000  1.0000000 )


      isym =  8     120 deg rotation - cryst. axis [0,0,-1]      

 cryst.   s( 8) = (    -1         -1          0      )
                  (     1          0          0      )
                  (     0          0          1      )

 cart.    s( 8) = ( -0.5000000  0.8660254  0.0000000 )
                  ( -0.8660254 -0.5000000  0.0000000 )
                  (  0.0000000  0.0000000  1.0000000 )


      isym =  9     180 deg rotation - cryst. axis [1,-1,0]      

 cryst.   s( 9) = (     0         -1          0      )
                  (    -1          0          0      )
                  (     0          0         -1      )

 cart.    s( 9) = (  0.5000000 -0.8660254  0.0000000 )
                  ( -0.8660254 -0.5000000  0.0000000 )
                  (  0.0000000  0.0000000 -1.0000000 )


      isym = 10     180 deg rotation - cryst. axis [2,1,0]       

 cryst.   s(10) = (     1          1          0      )
                  (     0         -1          0      )
                  (     0          0         -1      )

 cart.    s(10) = (  0.5000000  0.8660254  0.0000000 )
                  (  0.8660254 -0.5000000  0.0000000 )
                  (  0.0000000  0.0000000 -1.0000000 )


      isym = 11     180 deg rotation - cryst. axis [0,1,0]       

 cryst.   s(11) = (    -1         -1          0      )
                  (     0          1          0      )
                  (     0          0         -1      )

 cart.    s(11) = ( -0.5000000 -0.8660254  0.0000000 )
                  ( -0.8660254  0.5000000  0.0000000 )
                  (  0.0000000  0.0000000 -1.0000000 )


      isym = 12     180 deg rotation - cryst. axis [1,1,0]       

 cryst.   s(12) = (     0          1          0      )
                  (     1          0          0      )
                  (     0          0         -1      )

 cart.    s(12) = ( -0.5000000  0.8660254  0.0000000 )
                  (  0.8660254  0.5000000  0.0000000 )
                  (  0.0000000  0.0000000 -1.0000000 )


      isym = 13     inversion                                    

 cryst.   s(13) = (    -1          0          0      )
                  (     0         -1          0      )
                  (     0          0         -1      )

 cart.    s(13) = ( -1.0000000  0.0000000  0.0000000 )
                  (  0.0000000 -1.0000000  0.0000000 )
                  (  0.0000000  0.0000000 -1.0000000 )


      isym = 14     inv. 180 deg rotation - cart. axis [0,0,1]   

 cryst.   s(14) = (     1          0          0      )
                  (     0          1          0      )
                  (     0          0         -1      )

 cart.    s(14) = (  1.0000000  0.0000000  0.0000000 )
                  (  0.0000000  1.0000000  0.0000000 )
                  (  0.0000000  0.0000000 -1.0000000 )


      isym = 15     inv. 180 deg rotation - cart. axis [0,1,0]   

 cryst.   s(15) = (     1          0          0      )
                  (    -1         -1          0      )
                  (     0          0          1      )

 cart.    s(15) = (  1.0000000  0.0000000  0.0000000 )
                  (  0.0000000 -1.0000000  0.0000000 )
                  (  0.0000000  0.0000000  1.0000000 )


      isym = 16     inv. 180 deg rotation - cart. axis [1,0,0]   

 cryst.   s(16) = (    -1          0          0      )
                  (     1          1          0      )
                  (     0          0          1      )

 cart.    s(16) = ( -1.0000000  0.0000000  0.0000000 )
                  (  0.0000000  1.0000000  0.0000000 )
                  (  0.0000000  0.0000000  1.0000000 )


      isym = 17     inv.  60 deg rotation - cryst. axis [0,0,1]  

 cryst.   s(17) = (    -1         -1          0      )
                  (     1          0          0      )
                  (     0          0         -1      )

 cart.    s(17) = ( -0.5000000  0.8660254  0.0000000 )
                  ( -0.8660254 -0.5000000  0.0000000 )
                  (  0.0000000  0.0000000 -1.0000000 )


      isym = 18     inv.  60 deg rotation - cryst. axis [0,0,-1] 

 cryst.   s(18) = (     0          1          0      )
                  (    -1         -1          0      )
                  (     0          0         -1      )

 cart.    s(18) = ( -0.5000000 -0.8660254  0.0000000 )
                  (  0.8660254 -0.5000000  0.0000000 )
                  (  0.0000000  0.0000000 -1.0000000 )


      isym = 19     inv. 120 deg rotation - cryst. axis [0,0,1]  

 cryst.   s(19) = (     0         -1          0      )
                  (     1          1          0      )
                  (     0          0         -1      )

 cart.    s(19) = (  0.5000000  0.8660254  0.0000000 )
                  ( -0.8660254  0.5000000  0.0000000 )
                  (  0.0000000  0.0000000 -1.0000000 )


      isym = 20     inv. 120 deg rotation - cryst. axis [0,0,-1] 

 cryst.   s(20) = (     1          1          0      )
                  (    -1          0          0      )
                  (     0          0         -1      )

 cart.    s(20) = (  0.5000000 -0.8660254  0.0000000 )
                  (  0.8660254  0.5000000  0.0000000 )
                  (  0.0000000  0.0000000 -1.0000000 )


      isym = 21     inv. 180 deg rotation - cryst. axis [1,-1,0] 

 cryst.   s(21) = (     0          1          0      )
                  (     1          0          0      )
                  (     0          0          1      )

 cart.    s(21) = ( -0.5000000  0.8660254  0.0000000 )
                  (  0.8660254  0.5000000  0.0000000 )
                  (  0.0000000  0.0000000  1.0000000 )


      isym = 22     inv. 180 deg rotation - cryst. axis [2,1,0]  

 cryst.   s(22) = (    -1         -1          0      )
                  (     0          1          0      )
                  (     0          0          1      )

 cart.    s(22) = ( -0.5000000 -0.8660254  0.0000000 )
                  ( -0.8660254  0.5000000  0.0000000 )
                  (  0.0000000  0.0000000  1.0000000 )


      isym = 23     inv. 180 deg rotation - cryst. axis [0,1,0]  

 cryst.   s(23) = (     1          1          0      )
                  (     0         -1          0      )
                  (     0          0          1      )

 cart.    s(23) = (  0.5000000  0.8660254  0.0000000 )
                  (  0.8660254 -0.5000000  0.0000000 )
                  (  0.0000000  0.0000000  1.0000000 )


      isym = 24     inv. 180 deg rotation - cryst. axis [1,1,0]  

 cryst.   s(24) = (     0         -1          0      )
                  (    -1          0          0      )
                  (     0          0          1      )

 cart.    s(24) = (  0.5000000 -0.8660254  0.0000000 )
                  ( -0.8660254 -0.5000000  0.0000000 )
                  (  0.0000000  0.0000000  1.0000000 )


     point group D_6h(6/mmm)
     there are 12 classes
     the character table:

       E     2C6   2C3   C2    3C2'  3C2'' i     2S3   2S6   s_h   3s_d  3s_v 
A_1g   1.00  1.00  1.00  1.00  1.00  1.00  1.00  1.00  1.00  1.00  1.00  1.00
A_2g   1.00  1.00  1.00  1.00 -1.00 -1.00  1.00  1.00  1.00  1.00 -1.00 -1.00
B_1g   1.00 -1.00  1.00 -1.00  1.00 -1.00  1.00 -1.00  1.00 -1.00  1.00 -1.00
B_2g   1.00 -1.00  1.00 -1.00 -1.00  1.00  1.00 -1.00  1.00 -1.00 -1.00  1.00
E_1g   2.00  1.00 -1.00 -2.00  0.00  0.00  2.00  1.00 -1.00 -2.00  0.00  0.00
E_2g   2.00 -1.00 -1.00  2.00  0.00  0.00  2.00 -1.00 -1.00  2.00  0.00  0.00
A_1u   1.00  1.00  1.00  1.00  1.00  1.00 -1.00 -1.00 -1.00 -1.00 -1.00 -1.00
A_2u   1.00  1.00  1.00  1.00 -1.00 -1.00 -1.00 -1.00 -1.00 -1.00  1.00  1.00
B_1u   1.00 -1.00  1.00 -1.00  1.00 -1.00 -1.00  1.00 -1.00  1.00 -1.00  1.00
B_2u   1.00 -1.00  1.00 -1.00 -1.00  1.00 -1.00  1.00 -1.00  1.00  1.00 -1.00
E_1u   2.00  1.00 -1.00 -2.00  0.00  0.00 -2.00 -1.00  1.00  2.00  0.00  0.00
E_2u   2.00 -1.00 -1.00  2.00  0.00  0.00 -2.00  1.00  1.00 -2.00  0.00  0.00

     the symmetry operations in each class and the name of the first element:

     E        1
          identity                                               
     2C6      5    6
           60 deg rotation - cryst. axis [0,0,1]                 
     2C3      7    8
          120 deg rotation - cryst. axis [0,0,1]                 
     C2       2
          180 deg rotation - cart. axis [0,0,1]                  
     3C2'     4   12   11
          180 deg rotation - cart. axis [1,0,0]                  
     3C2''    3    9   10
          180 deg rotation - cart. axis [0,1,0]                  
     i       13
          inversion                                              
     2S3     17   18
          inv.  60 deg rotation - cryst. axis [0,0,1]            
     2S6     19   20
          inv. 120 deg rotation - cryst. axis [0,0,1]            
     s_h     14
          inv. 180 deg rotation - cart. axis [0,0,1]             
     3s_d    16   24   23
          inv. 180 deg rotation - cart. axis [1,0,0]             
     3s_v    15   21   22
          inv. 180 deg rotation - cart. axis [0,1,0]             

   Cartesian axes

     site n.     atom                  positions (alat units)
         1           C   tau(   1) = (  -0.0000000   0.5773503   3.0400883  )
         2           C   tau(   2) = (   0.5000000   0.2886751   3.0400883  )

   Crystallographic axes

     site n.     atom                  positions (cryst. coord.)
         1           C   tau(   1) = (  0.3333333  0.6666667  0.5000000  )
         2           C   tau(   2) = (  0.6666667  0.3333333  0.5000000  )

     number of k points=    19  Gaussian smearing, width (Ry)=  0.0100
                       cart. coord. in units 2pi/alat
        k(    1) = (   0.0000000   0.0000000   0.0000000), wk =   0.0138889
        k(    2) = (   0.0000000   0.0962250   0.0000000), wk =   0.0833333
        k(    3) = (   0.0000000   0.1924501   0.0000000), wk =   0.0833333
        k(    4) = (   0.0000000   0.2886751   0.0000000), wk =   0.0833333
        k(    5) = (   0.0000000   0.3849002   0.0000000), wk =   0.0833333
        k(    6) = (   0.0000000   0.4811252   0.0000000), wk =   0.0833333
        k(    7) = (   0.0000000  -0.5773503   0.0000000), wk =   0.0416667
        k(    8) = (   0.0833333   0.1443376   0.0000000), wk =   0.0833333
        k(    9) = (   0.0833333   0.2405626   0.0000000), wk =   0.1666667
        k(   10) = (   0.0833333   0.3367877   0.0000000), wk =   0.1666667
        k(   11) = (   0.0833333   0.4330127   0.0000000), wk =   0.1666667
        k(   12) = (   0.0833333   0.5292377   0.0000000), wk =   0.1666667
        k(   13) = (   0.1666667   0.2886751   0.0000000), wk =   0.0833333
        k(   14) = (   0.1666667   0.3849002   0.0000000), wk =   0.1666667
        k(   15) = (   0.1666667   0.4811252   0.0000000), wk =   0.1666667
        k(   16) = (   0.1666667   0.5773503   0.0000000), wk =   0.0833333
        k(   17) = (   0.2500000   0.4330127   0.0000000), wk =   0.0833333
        k(   18) = (   0.2500000   0.5292377   0.0000000), wk =   0.1666667
        k(   19) = (   0.3333333   0.5773503   0.0000000), wk =   0.0277778

                       cryst. coord.
        k(    1) = (   0.0000000   0.0000000   0.0000000), wk =   0.0138889
        k(    2) = (   0.0000000   0.0833333   0.0000000), wk =   0.0833333
        k(    3) = (   0.0000000   0.1666667   0.0000000), wk =   0.0833333
        k(    4) = (   0.0000000   0.2500000   0.0000000), wk =   0.0833333
        k(    5) = (   0.0000000   0.3333333   0.0000000), wk =   0.0833333
        k(    6) = (   0.0000000   0.4166667   0.0000000), wk =   0.0833333
        k(    7) = (   0.0000000  -0.5000000   0.0000000), wk =   0.0416667
        k(    8) = (   0.0833333   0.0833333   0.0000000), wk =   0.0833333
        k(    9) = (   0.0833333   0.1666667   0.0000000), wk =   0.1666667
        k(   10) = (   0.0833333   0.2500000   0.0000000), wk =   0.1666667
        k(   11) = (   0.0833333   0.3333333   0.0000000), wk =   0.1666667
        k(   12) = (   0.0833333   0.4166667   0.0000000), wk =   0.1666667
        k(   13) = (   0.1666667   0.1666667   0.0000000), wk =   0.0833333
        k(   14) = (   0.1666667   0.2500000   0.0000000), wk =   0.1666667
        k(   15) = (   0.1666667   0.3333333   0.0000000), wk =   0.1666667
        k(   16) = (   0.1666667   0.4166667   0.0000000), wk =   0.0833333
        k(   17) = (   0.2500000   0.2500000   0.0000000), wk =   0.0833333
        k(   18) = (   0.2500000   0.3333333   0.0000000), wk =   0.1666667
        k(   19) = (   0.3333333   0.3333333   0.0000000), wk =   0.0277778

     Dense  grid:    61545 G-vectors     FFT dimensions: (  30,  30, 180)

     Smooth grid:    21673 G-vectors     FFT dimensions: (  20,  20, 125)

     Dynamical RAM for                 wfc:       0.87 MB

     Dynamical RAM for     wfc (w. buffer):       3.49 MB

     Dynamical RAM for           str. fact:       0.23 MB

     Dynamical RAM for           local pot:       0.00 MB

     Dynamical RAM for          nlocal pot:       0.17 MB

     Dynamical RAM for                qrad:       0.44 MB

     Dynamical RAM for          rho,v,vnew:       1.63 MB

     Dynamical RAM for               rhoin:       0.54 MB

     Dynamical RAM for            rho*nmix:       3.76 MB

     Dynamical RAM for           G-vectors:       0.92 MB

     Dynamical RAM for          h,s,v(r/c):       0.32 MB

     Dynamical RAM for          <psi|beta>:       0.02 MB

     Dynamical RAM for                 psi:       1.74 MB

     Dynamical RAM for                hpsi:       1.74 MB

     Dynamical RAM for                spsi:       1.74 MB

     Dynamical RAM for      wfcinit/wfcrot:       1.91 MB

     Dynamical RAM for           addusdens:       1.71 MB

     Dynamical RAM for          addusforce:       1.69 MB

     Dynamical RAM for         addusstress:       1.78 MB

     Estimated static dynamical RAM per process >       9.43 MB

     Estimated max dynamical RAM per process >      18.76 MB

     Estimated total dynamical RAM >     435.20 MB

     Check: negative core charge=   -0.000005

     Initial potential from superposition of free atoms

     starting charge       7.9999, renormalised to       8.0000

     negative rho (up, down):  1.055E-04 0.000E+00
     Starting wfcs are    8 randomized atomic wfcs +   76 random wfcs
     Checking if some PAW data can be deallocated... 

     total cpu time spent up to now is        7.2 secs

     Self-consistent Calculation

     iteration #  1     ecut=    45.00 Ry     beta= 0.70
     Davidson diagonalization with overlap

---- Real-time Memory Report at c_bands before calling an iterative solver
           142 MiB given to the printing process from OS
             0 MiB allocation reported by mallinfo(arena+hblkhd)
         53864 MiB available memory on the node where the printing process lives
------------------
     ethr =  1.00E-02,  avg # of iterations =  6.9

     negative rho (up, down):  1.784E-04 0.000E+00

     total cpu time spent up to now is       10.4 secs

     total energy              =     -36.85400539 Ry
     estimated scf accuracy    <       0.20203713 Ry

     iteration #  2     ecut=    45.00 Ry     beta= 0.70
     Davidson diagonalization with overlap

---- Real-time Memory Report at c_bands before calling an iterative solver
           188 MiB given to the printing process from OS
             0 MiB allocation reported by mallinfo(arena+hblkhd)
         53360 MiB available memory on the node where the printing process lives
------------------
     ethr =  2.53E-03,  avg # of iterations =  2.1

     negative rho (up, down):  2.001E-04 0.000E+00

     total cpu time spent up to now is       13.1 secs

     total energy              =     -36.88651582 Ry
     estimated scf accuracy    <       0.00266547 Ry

     iteration #  3     ecut=    45.00 Ry     beta= 0.70
     Davidson diagonalization with overlap

---- Real-time Memory Report at c_bands before calling an iterative solver
           194 MiB given to the printing process from OS
             0 MiB allocation reported by mallinfo(arena+hblkhd)
         53250 MiB available memory on the node where the printing process lives
------------------
     ethr =  3.33E-05,  avg # of iterations =  5.6

     negative rho (up, down):  2.149E-04 0.000E+00

     total cpu time spent up to now is       15.7 secs

     total energy              =     -36.88667620 Ry
     estimated scf accuracy    <       0.00019078 Ry

     iteration #  4     ecut=    45.00 Ry     beta= 0.70
     Davidson diagonalization with overlap

---- Real-time Memory Report at c_bands before calling an iterative solver
           197 MiB given to the printing process from OS
             0 MiB allocation reported by mallinfo(arena+hblkhd)
         53168 MiB available memory on the node where the printing process lives
------------------
     ethr =  2.38E-06,  avg # of iterations =  4.3

     negative rho (up, down):  2.164E-04 0.000E+00

     total cpu time spent up to now is       18.8 secs

     total energy              =     -36.88668063 Ry
     estimated scf accuracy    <       0.00000028 Ry

     iteration #  5     ecut=    45.00 Ry     beta= 0.70
     Davidson diagonalization with overlap

---- Real-time Memory Report at c_bands before calling an iterative solver
           200 MiB given to the printing process from OS
             0 MiB allocation reported by mallinfo(arena+hblkhd)
         53165 MiB available memory on the node where the printing process lives
------------------
     ethr =  3.53E-09,  avg # of iterations =  2.0

     negative rho (up, down):  2.168E-04 0.000E+00

     total cpu time spent up to now is       21.5 secs

     total energy              =     -36.88668071 Ry
     estimated scf accuracy    <       0.00000001 Ry

     iteration #  6     ecut=    45.00 Ry     beta= 0.70
     Davidson diagonalization with overlap

---- Real-time Memory Report at c_bands before calling an iterative solver
           202 MiB given to the printing process from OS
             0 MiB allocation reported by mallinfo(arena+hblkhd)
         53177 MiB available memory on the node where the printing process lives
------------------
     ethr =  1.66E-10,  avg # of iterations =  2.0

     negative rho (up, down):  2.169E-04 0.000E+00

     total cpu time spent up to now is       24.2 secs

     End of self-consistent calculation

          k = 0.0000 0.0000 0.0000 (  2641 PWs)   bands (ev):

   -21.2420  -9.3370  -4.7778  -4.7778   1.4197   2.2444   2.5057   4.4750
     5.3134   6.5973   6.5973   8.4547   9.5790   9.6813  10.7515  13.7925
    15.2992  20.3696  20.7525  22.4599  26.4803  26.4803  27.4269  29.8642
    29.8642  30.9569  31.8527  33.4351  33.4351  33.9199  33.9199  34.3503
    34.6185  34.7360  35.2281  35.2281  35.2936  35.2936  35.4081  35.4081
    35.4629  35.5308  35.6377  35.6377  35.7908  36.8330  37.4947  37.6873
    37.6873  37.8059  37.8059  37.8130  37.8130  38.2269  38.2269  38.2848
    38.7658  39.6495  40.5848  40.7895  41.6250  41.6250  41.7199  41.7199
    42.0096  42.0096  42.5565  42.5565  42.5757  42.8398  43.2517  45.7992
    46.2693  46.2693  47.3030  47.3030  47.3593  47.6878  47.6878  48.3045
    48.3558  48.3558  49.0265  50.7075

     occupation numbers 
     1.0000   1.0000   1.0000   1.0000   0.0000   0.0000   0.0000   0.0000
     0.0000   0.0000   0.0000   0.0000   0.0000   0.0000   0.0000   0.0000
     0.0000   0.0000   0.0000   0.0000   0.0000   0.0000   0.0000   0.0000
     0.0000   0.0000   0.0000   0.0000   0.0000   0.0000   0.0000   0.0000
     0.0000   0.0000   0.0000   0.0000   0.0000   0.0000   0.0000   0.0000
     0.0000   0.0000   0.0000   0.0000   0.0000   0.0000   0.0000   0.0000
     0.0000   0.0000   0.0000   0.0000   0.0000   0.0000   0.0000   0.0000
     0.0000   0.0000   0.0000   0.0000   0.0000   0.0000   0.0000   0.0000
     0.0000   0.0000   0.0000   0.0000   0.0000   0.0000   0.0000   0.0000
     0.0000   0.0000   0.0000   0.0000   0.0000   0.0000   0.0000   0.0000
     0.0000   0.0000   0.0000   0.0000

          k = 0.0000 0.0962 0.0000 (  2671 PWs)   bands (ev):

   -21.0782  -9.1413  -5.4285  -5.1159   1.6435   2.4698   2.7317   4.6978
     5.5327   6.6676   7.2910   8.6710   9.1218   9.8039  11.0550  13.9922
    15.5197  20.4783  21.2612  22.6777  24.7384  25.2019  27.4163  28.9757
    29.8490  30.1181  30.3782  31.1593  31.2099  31.4945  31.9582  32.4914
    32.7479  32.7637  33.0687  33.0851  33.1466  34.5518  35.1775  35.2598
    35.5227  35.7748  36.5669  36.5754  36.6422  37.5791  38.1928  38.2113
    38.4358  38.4878  38.6549  39.1653  39.2590  39.6865  39.7388  40.3095
    40.6207  40.7848  40.8536  40.9740  41.0287  41.2938  41.5047  42.3136
    42.6339  43.3939  43.4524  44.1541  44.4768  44.7586  45.0643  45.0877
    45.3169  45.6943  45.9089  46.9630  47.6674  48.3653  48.5550  48.7405
    50.1387  50.4775  50.4907  50.9432

     occupation numbers 
     1.0000   1.0000   1.0000   1.0000   0.0000   0.0000   0.0000   0.0000
     0.0000   0.0000   0.0000   0.0000   0.0000   0.0000   0.0000   0.0000
     0.0000   0.0000   0.0000   0.0000   0.0000   0.0000   0.0000   0.0000
     0.0000   0.0000   0.0000   0.0000   0.0000   0.0000   0.0000   0.0000
     0.0000   0.0000   0.0000   0.0000   0.0000   0.0000   0.0000   0.0000
     0.0000   0.0000   0.0000   0.0000   0.0000   0.0000   0.0000   0.0000
     0.0000   0.0000   0.0000   0.0000   0.0000   0.0000   0.0000   0.0000
     0.0000   0.0000   0.0000   0.0000   0.0000   0.0000   0.0000   0.0000
     0.0000   0.0000   0.0000   0.0000   0.0000   0.0000   0.0000   0.0000
     0.0000   0.0000   0.0000   0.0000   0.0000   0.0000   0.0000   0.0000
     0.0000   0.0000   0.0000   0.0000

          k = 0.0000 0.1925 0.0000 (  2699 PWs)   bands (ev):

   -20.5885  -8.5592  -7.0661  -5.9077   2.3147   3.1445   3.4099   5.3630
     6.1743   6.6427   7.6175   9.1293   9.3200  10.4695  12.0274  14.5680
    16.1727  20.2742  22.2257  22.4947  23.3677  23.3851  24.5746  25.5009
    25.5512  27.4669  28.2105  28.8272  29.1827  29.9278  30.0232  30.6947
    30.8968  31.0053  31.5435  31.7940  32.3095  32.3887  33.2273  33.2452
    33.8138  33.9247  34.9630  36.8329  37.2334  37.5613  37.7569  37.7693
    38.2147  39.1305  39.6258  40.4333  40.7648  41.2878  41.5712  41.8452
    41.9210  42.1107  42.5270  42.5696  43.2812  43.3913  43.7434  43.9772
    44.3864  44.4813  44.6039  44.8954  45.5852  46.3305  46.8166  47.1567
    47.6199  47.9481  48.6594  48.8714  48.8982  48.8986  50.0297  50.5407
    50.5748  50.9231  51.1100  51.1411

     occupation numbers 
     1.0000   1.0000   1.0000   1.0000   0.0000   0.0000   0.0000   0.0000
     0.0000   0.0000   0.0000   0.0000   0.0000   0.0000   0.0000   0.0000
     0.0000   0.0000   0.0000   0.0000   0.0000   0.0000   0.0000   0.0000
     0.0000   0.0000   0.0000   0.0000   0.0000   0.0000   0.0000   0.0000
     0.0000   0.0000   0.0000   0.0000   0.0000   0.0000   0.0000   0.0000
     0.0000   0.0000   0.0000   0.0000   0.0000   0.0000   0.0000   0.0000
     0.0000   0.0000   0.0000   0.0000   0.0000   0.0000   0.0000   0.0000
     0.0000   0.0000   0.0000   0.0000   0.0000   0.0000   0.0000   0.0000
     0.0000   0.0000   0.0000   0.0000   0.0000   0.0000   0.0000   0.0000
     0.0000   0.0000   0.0000   0.0000   0.0000   0.0000   0.0000   0.0000
     0.0000   0.0000   0.0000   0.0000

          k = 0.0000 0.2887 0.0000 (  2689 PWs)   bands (ev):

   -19.7788  -9.1639  -7.6101  -6.7869   3.4315   4.2541   4.5391   5.5141
     6.3077   6.4985   7.3457  10.3837  11.5650  11.6702  13.3959  15.3931
    17.2380  18.5599  20.0003  21.0193  21.1414  21.8736  22.5685  23.2852
    24.2278  24.2553  25.2887  27.2405  27.5867  28.1447  28.6798  28.8677
    29.0937  29.3190  29.5519  30.3302  30.7972  31.6257  31.7721  32.2723
    32.9498  33.2658  33.9443  34.2699  35.6165  35.9548  36.5066  36.6891
    38.7551  39.8585  40.1563  40.3627  40.5472  41.5843  41.8926  41.9736
    42.3689  42.7363  44.0892  44.8732  44.9841  45.0625  45.8228  45.8459
    45.8493  46.3387  47.6687  48.0883  48.1947  48.2379  48.3032  48.9885
    49.0121  49.2109  49.2388  49.8622  51.6485  52.0423  52.5920  52.6137
    52.9103  53.2591  54.0239  54.1409

     occupation numbers 
     1.0000   1.0000   1.0000   1.0000   0.0000   0.0000   0.0000   0.0000
     0.0000   0.0000   0.0000   0.0000   0.0000   0.0000   0.0000   0.0000
     0.0000   0.0000   0.0000   0.0000   0.0000   0.0000   0.0000   0.0000
     0.0000   0.0000   0.0000   0.0000   0.0000   0.0000   0.0000   0.0000
     0.0000   0.0000   0.0000   0.0000   0.0000   0.0000   0.0000   0.0000
     0.0000   0.0000   0.0000   0.0000   0.0000   0.0000   0.0000   0.0000
     0.0000   0.0000   0.0000   0.0000   0.0000   0.0000   0.0000   0.0000
     0.0000   0.0000   0.0000   0.0000   0.0000   0.0000   0.0000   0.0000
     0.0000   0.0000   0.0000   0.0000   0.0000   0.0000   0.0000   0.0000
     0.0000   0.0000   0.0000   0.0000   0.0000   0.0000   0.0000   0.0000
     0.0000   0.0000   0.0000   0.0000

          k = 0.0000 0.3849 0.0000 (  2706 PWs)   bands (ev):

   -18.6613 -11.3660  -7.5199  -6.3442   3.1819   4.9840   5.8567   5.9536
     6.1641   8.0271   8.8899  11.8160  13.0794  14.0498  14.4921  15.4329
    16.6426  16.9838  17.7156  18.2459  18.6872  20.2892  20.3597  20.7725
    23.2926  23.8035  25.1876  25.2271  26.4199  26.6192  27.4678  27.5868
    27.9445  28.1813  28.4103  28.9099  30.2255  30.3351  30.4570  30.6464
    31.2625  32.6539  33.2756  34.3727  34.5058  34.8887  35.5557  36.3840
    37.3410  38.1824  38.2189  40.1012  40.5225  40.8504  40.9764  42.6768
    43.1441  43.2733  44.7902  45.1637  46.0838  47.1273  47.3020  47.8061
    48.1694  48.8765  49.1377  49.7515  49.9992  50.0614  50.1807  51.5000
    51.9338  52.5556  52.5708  52.6556  53.7070  54.7606  55.3310  55.7260
    55.8709  56.1439  56.2070  56.2580

     occupation numbers 
     1.0000   1.0000   1.0000   1.0000   0.0000   0.0000   0.0000   0.0000
     0.0000   0.0000   0.0000   0.0000   0.0000   0.0000   0.0000   0.0000
     0.0000   0.0000   0.0000   0.0000   0.0000   0.0000   0.0000   0.0000
     0.0000   0.0000   0.0000   0.0000   0.0000   0.0000   0.0000   0.0000
     0.0000   0.0000   0.0000   0.0000   0.0000   0.0000   0.0000   0.0000
     0.0000   0.0000   0.0000   0.0000   0.0000   0.0000   0.0000   0.0000
     0.0000   0.0000   0.0000   0.0000   0.0000   0.0000   0.0000   0.0000
     0.0000   0.0000   0.0000   0.0000   0.0000   0.0000   0.0000   0.0000
     0.0000   0.0000   0.0000   0.0000   0.0000   0.0000   0.0000   0.0000
     0.0000   0.0000   0.0000   0.0000   0.0000   0.0000   0.0000   0.0000
     0.0000   0.0000   0.0000   0.0000

          k = 0.0000 0.4811 0.0000 (  2714 PWs)   bands (ev):

   -17.2673 -13.4643  -7.9926  -4.9245   1.0520   5.7305   6.9976   7.8520
     8.1588   9.9721  10.8719  12.0701  12.8184  13.5166  13.6931  14.9881
    15.0359  15.8146  17.0115  17.2108  18.5318  19.3566  20.1068  20.2974
    21.4787  21.6024  24.7731  25.1873  25.6710  26.4468  26.5864  27.1654
    27.2454  27.4974  27.5002  27.7654  29.1513  29.3310  29.7098  29.9663
    30.4636  31.9498  33.2559  33.3896  33.9896  34.2177  34.6735  35.5314
    36.0023  36.9504  37.8923  39.9260  39.9597  40.2947  40.6566  42.4119
    43.4943  44.1192  44.9661  46.7781  46.7888  47.3650  47.7655  47.7791
    48.1065  50.6598  52.0632  52.2055  53.1097  53.2029  54.5291  54.5438
    54.6601  54.9412  55.1786  55.5577  55.6034  56.0670  57.0450  57.2099
    57.3413  57.4413  57.4864  58.0052

     occupation numbers 
     1.0000   1.0000   1.0000   1.0000   0.0000   0.0000   0.0000   0.0000
     0.0000   0.0000   0.0000   0.0000   0.0000   0.0000   0.0000   0.0000
     0.0000   0.0000   0.0000   0.0000   0.0000   0.0000   0.0000   0.0000
     0.0000   0.0000   0.0000   0.0000   0.0000   0.0000   0.0000   0.0000
     0.0000   0.0000   0.0000   0.0000   0.0000   0.0000   0.0000   0.0000
     0.0000   0.0000   0.0000   0.0000   0.0000   0.0000   0.0000   0.0000
     0.0000   0.0000   0.0000   0.0000   0.0000   0.0000   0.0000   0.0000
     0.0000   0.0000   0.0000   0.0000   0.0000   0.0000   0.0000   0.0000
     0.0000   0.0000   0.0000   0.0000   0.0000   0.0000   0.0000   0.0000
     0.0000   0.0000   0.0000   0.0000   0.0000   0.0000   0.0000   0.0000
     0.0000   0.0000   0.0000   0.0000

          k = 0.0000-0.5774 0.0000 (  2724 PWs)   bands (ev):

   -16.0084 -14.9659  -8.1549  -4.0821  -0.0430   5.6511   9.3207   9.4577
    10.1524  10.3415  10.6181  10.6444  12.0707  12.5370  13.2212  13.2839
    15.0240  16.4624  17.0262  17.2261  18.1381  18.7865  19.8842  20.3380
    21.7857  22.0058  23.7824  24.0534  25.3873  25.8869  26.4353  26.8055
    27.0064  27.2693  27.3002  28.4823  28.7020  29.4288  29.7392  30.0705
    30.7819  30.8034  31.7956  32.8613  33.1313  33.9925  34.4160  35.1717
    36.3415  37.4039  39.1238  39.5598  39.6819  39.7085  39.9362  40.3383
    44.2587  44.3924  46.5583  46.7751  46.8905  47.5638  49.1100  49.3915
    49.5766  50.2545  50.3050  52.5106  53.1264  53.4636  54.8241  54.9444
    55.6461  56.6318  57.1966  58.1418  58.2253  58.9581  59.3266  59.6403
    59.7746  59.8922  60.0323  60.0886

     occupation numbers 
     1.0000   1.0000   1.0000   1.0000   0.0000   0.0000   0.0000   0.0000
     0.0000   0.0000   0.0000   0.0000   0.0000   0.0000   0.0000   0.0000
     0.0000   0.0000   0.0000   0.0000   0.0000   0.0000   0.0000   0.0000
     0.0000   0.0000   0.0000   0.0000   0.0000   0.0000   0.0000   0.0000
     0.0000   0.0000   0.0000   0.0000   0.0000   0.0000   0.0000   0.0000
     0.0000   0.0000   0.0000   0.0000   0.0000   0.0000   0.0000   0.0000
     0.0000   0.0000   0.0000   0.0000   0.0000   0.0000   0.0000   0.0000
     0.0000   0.0000   0.0000   0.0000   0.0000   0.0000   0.0000   0.0000
     0.0000   0.0000   0.0000   0.0000   0.0000   0.0000   0.0000   0.0000
     0.0000   0.0000   0.0000   0.0000   0.0000   0.0000   0.0000   0.0000
     0.0000   0.0000   0.0000   0.0000

          k = 0.0833 0.1443 0.0000 (  2691 PWs)   bands (ev):

   -20.7515  -8.7522  -6.4625  -5.7927   2.0912   2.9199   3.1840   5.1423
     5.9722   6.9724   8.1027   8.1658   9.1015  10.2505  11.8023  14.3762
    15.9562  20.3586  22.0342  22.5763  23.1414  24.5186  26.6066  27.0260
    27.7249  27.8185  27.9435  27.9988  28.0587  29.8735  30.3466  30.5025
    30.7209  31.3360  31.5749  33.2976  34.2702  34.4001  34.6762  34.8676
    34.9626  35.3712  36.0283  36.1291  36.1307  36.3887  37.5556  38.4224
    38.5573  38.5580  38.6184  39.6870  40.1078  40.2463  40.2988  41.0676
    41.2946  41.9145  42.2408  42.5652  42.8715  43.0408  43.2740  44.0467
    44.1386  44.2329  44.5452  45.5140  45.7130  45.9047  46.7253  46.8766
    46.8981  47.3797  47.5414  48.0585  48.2592  48.4584  48.5582  49.0020
    49.8155  50.6501  50.6555  51.4369

     occupation numbers 
     1.0000   1.0000   1.0000   1.0000   0.0000   0.0000   0.0000   0.0000
     0.0000   0.0000   0.0000   0.0000   0.0000   0.0000   0.0000   0.0000
     0.0000   0.0000   0.0000   0.0000   0.0000   0.0000   0.0000   0.0000
     0.0000   0.0000   0.0000   0.0000   0.0000   0.0000   0.0000   0.0000
     0.0000   0.0000   0.0000   0.0000   0.0000   0.0000   0.0000   0.0000
     0.0000   0.0000   0.0000   0.0000   0.0000   0.0000   0.0000   0.0000
     0.0000   0.0000   0.0000   0.0000   0.0000   0.0000   0.0000   0.0000
     0.0000   0.0000   0.0000   0.0000   0.0000   0.0000   0.0000   0.0000
     0.0000   0.0000   0.0000   0.0000   0.0000   0.0000   0.0000   0.0000
     0.0000   0.0000   0.0000   0.0000   0.0000   0.0000   0.0000   0.0000
     0.0000   0.0000   0.0000   0.0000

          k = 0.0833 0.2406 0.0000 (  2702 PWs)   bands (ev):

   -20.1018  -8.1721  -7.9855  -6.7900   2.9858   3.8169   4.0884   6.0144
     6.3720   6.8133   7.1675   9.6860   9.9495  11.1339  13.3938  15.0417
    16.8150  18.7505  21.8409  22.2596  22.6799  22.9924  23.6684  24.0159
    24.2103  25.2710  26.0294  26.1286  26.3494  26.6064  28.1561  28.8518
    28.9928  30.4624  30.5503  31.3002  32.3845  32.5460  33.3660  33.4793
    34.1575  34.2837  35.2825  35.9141  36.4722  36.8130  37.7721  38.2662
    38.4358  38.7188  39.6145  39.8365  40.1917  40.7998  41.2421  41.4386
    41.9442  42.1405  42.7466  42.9895  43.5875  44.2343  44.5419  45.3349
    45.6560  46.5438  46.6014  46.7463  46.8826  47.5929  48.0326  48.3043
    49.6494  49.7310  50.5278  50.5287  50.8400  51.0224  51.4956  51.7179
    52.0637  52.4301  53.3939  53.4315

     occupation numbers 
     1.0000   1.0000   1.0000   1.0000   0.0000   0.0000   0.0000   0.0000
     0.0000   0.0000   0.0000   0.0000   0.0000   0.0000   0.0000   0.0000
     0.0000   0.0000   0.0000   0.0000   0.0000   0.0000   0.0000   0.0000
     0.0000   0.0000   0.0000   0.0000   0.0000   0.0000   0.0000   0.0000
     0.0000   0.0000   0.0000   0.0000   0.0000   0.0000   0.0000   0.0000
     0.0000   0.0000   0.0000   0.0000   0.0000   0.0000   0.0000   0.0000
     0.0000   0.0000   0.0000   0.0000   0.0000   0.0000   0.0000   0.0000
     0.0000   0.0000   0.0000   0.0000   0.0000   0.0000   0.0000   0.0000
     0.0000   0.0000   0.0000   0.0000   0.0000   0.0000   0.0000   0.0000
     0.0000   0.0000   0.0000   0.0000   0.0000   0.0000   0.0000   0.0000
     0.0000   0.0000   0.0000   0.0000

          k = 0.0833 0.3368 0.0000 (  2711 PWs)   bands (ev):

   -19.1380 -10.2442  -7.6759  -6.8715   4.1899   4.3237   5.1835   5.4428
     6.8456   7.3541   8.2303  11.1740  11.7957  12.4525  15.1676  15.3440
    17.5236  18.0490  18.4284  19.3030  19.3565  21.0547  21.9668  22.6939
    23.2711  23.9159  24.3165  24.7813  24.8128  25.8448  26.4846  26.9609
    27.0656  27.8061  29.8895  31.0274  31.1339  31.8789  32.3239  32.5215
    32.8833  32.9146  33.9401  34.0174  35.4226  35.6048  37.2735  37.2748
    38.2776  39.0292  39.2456  39.2789  40.9707  41.2940  41.6857  42.0318
    43.1087  43.8180  44.0335  44.4671  44.5777  45.0798  45.6721  45.7044
    46.3624  46.8911  46.9964  47.8028  49.1454  50.4992  50.6680  50.7307
    51.7007  51.9367  52.0669  52.5229  52.7485  53.2972  53.3329  54.4825
    54.8975  55.1307  55.6487  56.1506

     occupation numbers 
     1.0000   1.0000   1.0000   1.0000   0.0000   0.0000   0.0000   0.0000
     0.0000   0.0000   0.0000   0.0000   0.0000   0.0000   0.0000   0.0000
     0.0000   0.0000   0.0000   0.0000   0.0000   0.0000   0.0000   0.0000
     0.0000   0.0000   0.0000   0.0000   0.0000   0.0000   0.0000   0.0000
     0.0000   0.0000   0.0000   0.0000   0.0000   0.0000   0.0000   0.0000
     0.0000   0.0000   0.0000   0.0000   0.0000   0.0000   0.0000   0.0000
     0.0000   0.0000   0.0000   0.0000   0.0000   0.0000   0.0000   0.0000
     0.0000   0.0000   0.0000   0.0000   0.0000   0.0000   0.0000   0.0000
     0.0000   0.0000   0.0000   0.0000   0.0000   0.0000   0.0000   0.0000
     0.0000   0.0000   0.0000   0.0000   0.0000   0.0000   0.0000   0.0000
     0.0000   0.0000   0.0000   0.0000

          k = 0.0833 0.4330 0.0000 (  2720 PWs)   bands (ev):

   -17.8791 -12.3654  -8.3104  -5.4946   1.9964   6.0831   6.5751   6.9502
     7.2620   9.0818   9.9924  12.5362  13.0118  14.1518  14.3213  15.0105
    15.7114  15.9301  17.4822  17.6844  19.1835  19.2664  19.7295  20.9999
    22.3930  22.8469  23.1068  23.6882  23.9197  24.9546  25.6382  26.0971
    26.4611  27.8033  28.0801  29.0607  30.0653  30.1684  31.1270  31.8628
    31.9451  32.8512  33.6615  34.3622  35.1093  35.4699  35.7126  36.1916
    36.5814  37.7120  38.0470  39.2187  39.4661  41.9905  42.7651  42.9294
    43.7368  44.0380  44.1666  44.9690  45.3102  46.3043  47.3056  47.5989
    48.5024  48.6556  50.1313  50.8153  50.9299  51.3977  51.8472  52.0984
    52.4016  53.8489  54.8247  54.8738  54.9677  55.1134  56.4236  56.5211
    56.8034  56.9391  57.6628  58.4246

     occupation numbers 
     1.0000   1.0000   1.0000   1.0000   0.0000   0.0000   0.0000   0.0000
     0.0000   0.0000   0.0000   0.0000   0.0000   0.0000   0.0000   0.0000
     0.0000   0.0000   0.0000   0.0000   0.0000   0.0000   0.0000   0.0000
     0.0000   0.0000   0.0000   0.0000   0.0000   0.0000   0.0000   0.0000
     0.0000   0.0000   0.0000   0.0000   0.0000   0.0000   0.0000   0.0000
     0.0000   0.0000   0.0000   0.0000   0.0000   0.0000   0.0000   0.0000
     0.0000   0.0000   0.0000   0.0000   0.0000   0.0000   0.0000   0.0000
     0.0000   0.0000   0.0000   0.0000   0.0000   0.0000   0.0000   0.0000
     0.0000   0.0000   0.0000   0.0000   0.0000   0.0000   0.0000   0.0000
     0.0000   0.0000   0.0000   0.0000   0.0000   0.0000   0.0000   0.0000
     0.0000   0.0000   0.0000   0.0000

          k = 0.0833 0.5292 0.0000 (  2728 PWs)   bands (ev):

   -16.4023 -14.3041  -8.6387  -4.1883   0.2320   6.3891   8.3034   9.1224
     9.5059  10.8444  11.0303  11.7461  12.1539  12.2037  13.3528  14.6170
    14.7057  16.1189  16.4439  17.1281  18.6402  18.7618  20.6068  20.6763
    21.6325  22.0865  22.1938  23.2291  23.4482  24.2912  24.8215  25.7025
    25.8186  26.3670  28.1615  29.4141  29.6000  29.9884  30.6410  31.1429
    31.4623  31.7629  32.6287  33.6358  33.7848  35.0107  35.4100  36.1628
    36.6680  37.6726  38.1355  38.8233  39.5903  41.1264  41.6729  43.0095
    43.4436  43.6677  44.1038  46.6145  46.6674  48.3682  48.7672  49.2668
    50.5714  50.9024  51.1184  51.1424  52.1419  52.6562  52.9812  53.5385
    53.7284  55.2540  55.9530  56.2679  56.3681  56.9763  58.4522  58.5638
    58.9471  59.1371  59.1948  59.2935

     occupation numbers 
     1.0000   1.0000   1.0000   1.0000   0.0000   0.0000   0.0000   0.0000
     0.0000   0.0000   0.0000   0.0000   0.0000   0.0000   0.0000   0.0000
     0.0000   0.0000   0.0000   0.0000   0.0000   0.0000   0.0000   0.0000
     0.0000   0.0000   0.0000   0.0000   0.0000   0.0000   0.0000   0.0000
     0.0000   0.0000   0.0000   0.0000   0.0000   0.0000   0.0000   0.0000
     0.0000   0.0000   0.0000   0.0000   0.0000   0.0000   0.0000   0.0000
     0.0000   0.0000   0.0000   0.0000   0.0000   0.0000   0.0000   0.0000
     0.0000   0.0000   0.0000   0.0000   0.0000   0.0000   0.0000   0.0000
     0.0000   0.0000   0.0000   0.0000   0.0000   0.0000   0.0000   0.0000
     0.0000   0.0000   0.0000   0.0000   0.0000   0.0000   0.0000   0.0000
     0.0000   0.0000   0.0000   0.0000

          k = 0.1667 0.2887 0.0000 (  2711 PWs)   bands (ev):

   -19.2980  -9.5028  -8.1504  -7.0500   4.1024   4.6461   4.9324   5.2191
     7.1161   7.9285   8.3601   9.7953  10.9337  12.2271  15.0355  15.5768
    17.4621  17.8571  20.4342  20.7660  20.8515  21.5942  21.7732  21.7786
    22.9110  23.1974  23.7025  24.5391  24.6270  24.8263  25.8925  26.3715
    28.5644  28.6925  29.2707  29.2882  29.7012  32.5654  33.5474  33.6881
    34.1945  34.5005  34.8231  36.6560  36.9164  37.6020  38.0178  38.0518
    38.1819  39.1530  40.0687  40.1554  40.1707  40.7635  41.0314  41.2254
    41.4374  42.0272  42.7382  43.0730  43.4499  44.1632  44.9885  45.0734
    45.7315  45.9064  48.2973  48.5593  49.7056  49.7805  50.0127  50.3606
    50.7822  50.8250  51.0564  53.1675  53.4279  53.6703  54.4050  54.4884
    54.5720  54.7675  54.9100  55.9605

     occupation numbers 
     1.0000   1.0000   1.0000   1.0000   0.0000   0.0000   0.0000   0.0000
     0.0000   0.0000   0.0000   0.0000   0.0000   0.0000   0.0000   0.0000
     0.0000   0.0000   0.0000   0.0000   0.0000   0.0000   0.0000   0.0000
     0.0000   0.0000   0.0000   0.0000   0.0000   0.0000   0.0000   0.0000
     0.0000   0.0000   0.0000   0.0000   0.0000   0.0000   0.0000   0.0000
     0.0000   0.0000   0.0000   0.0000   0.0000   0.0000   0.0000   0.0000
     0.0000   0.0000   0.0000   0.0000   0.0000   0.0000   0.0000   0.0000
     0.0000   0.0000   0.0000   0.0000   0.0000   0.0000   0.0000   0.0000
     0.0000   0.0000   0.0000   0.0000   0.0000   0.0000   0.0000   0.0000
     0.0000   0.0000   0.0000   0.0000   0.0000   0.0000   0.0000   0.0000
     0.0000   0.0000   0.0000   0.0000

          k = 0.1667 0.3849 0.0000 (  2721 PWs)   bands (ev):

   -18.1914 -11.2291  -9.2063  -5.7992   2.7028   5.6575   6.4749   6.7989
     8.4904   8.5949   9.5600  11.2443  11.9454  13.7326  14.1865  16.4440
    17.5254  17.5645  18.4581  18.5235  19.2223  19.5494  19.6557  20.5407
    20.7128  20.9560  22.3022  23.1387  23.7678  24.1928  24.8056  25.4141
    26.4870  27.2047  27.9800  28.0971  30.2240  30.8002  32.0507  32.6943
    33.1527  35.1269  35.2197  35.7640  36.7147  36.8756  37.3279  37.5562
    39.0241  39.0737  39.8427  40.2873  40.5865  41.1546  42.0897  42.2090
    42.8901  43.2040  43.4782  44.1397  44.8868  45.2463  45.5341  45.7044
    46.6239  47.3513  48.7332  48.7354  49.2079  49.6124  49.9174  50.4393
    52.3879  54.0311  54.6761  55.2470  55.4487  55.6458  56.0132  56.2957
    56.6563  57.1095  57.6519  58.6338

     occupation numbers 
     1.0000   1.0000   1.0000   1.0000   0.0000   0.0000   0.0000   0.0000
     0.0000   0.0000   0.0000   0.0000   0.0000   0.0000   0.0000   0.0000
     0.0000   0.0000   0.0000   0.0000   0.0000   0.0000   0.0000   0.0000
     0.0000   0.0000   0.0000   0.0000   0.0000   0.0000   0.0000   0.0000
     0.0000   0.0000   0.0000   0.0000   0.0000   0.0000   0.0000   0.0000
     0.0000   0.0000   0.0000   0.0000   0.0000   0.0000   0.0000   0.0000
     0.0000   0.0000   0.0000   0.0000   0.0000   0.0000   0.0000   0.0000
     0.0000   0.0000   0.0000   0.0000   0.0000   0.0000   0.0000   0.0000
     0.0000   0.0000   0.0000   0.0000   0.0000   0.0000   0.0000   0.0000
     0.0000   0.0000   0.0000   0.0000   0.0000   0.0000   0.0000   0.0000
     0.0000   0.0000   0.0000   0.0000

          k = 0.1667 0.4811 0.0000 (  2742 PWs)   bands (ev):

   -16.8174 -13.1377  -9.7823  -4.3754   0.7949   7.6273   8.2948   8.3768
     8.8357  10.2509  11.5012  12.0850  12.1159  13.9902  14.1993  15.0199
    15.2634  15.6348  16.7000  17.3131  18.7110  19.4041  19.7972  20.0058
    20.1870  20.6693  20.7169  22.1243  22.3707  22.6120  24.0144  24.5904
    26.0702  26.8625  27.2012  27.5260  28.8373  29.3666  31.6148  32.3773
    32.9712  34.4050  34.7902  35.5760  36.1647  36.2434  37.2015  37.3788
    38.1676  38.9491  39.6492  39.8554  40.2957  41.7648  42.6115  42.7176
    43.6894  44.1004  44.9832  46.5735  46.6708  47.2406  47.4436  47.7152
    48.3777  48.4753  48.9918  49.0439  50.0657  50.3160  51.7061  52.7380
    53.4298  53.9469  54.5311  55.3049  55.4730  56.2649  56.8490  57.1144
    57.3561  58.1023  58.2106  58.3423

     occupation numbers 
     1.0000   1.0000   1.0000   1.0000   0.0000   0.0000   0.0000   0.0000
     0.0000   0.0000   0.0000   0.0000   0.0000   0.0000   0.0000   0.0000
     0.0000   0.0000   0.0000   0.0000   0.0000   0.0000   0.0000   0.0000
     0.0000   0.0000   0.0000   0.0000   0.0000   0.0000   0.0000   0.0000
     0.0000   0.0000   0.0000   0.0000   0.0000   0.0000   0.0000   0.0000
     0.0000   0.0000   0.0000   0.0000   0.0000   0.0000   0.0000   0.0000
     0.0000   0.0000   0.0000   0.0000   0.0000   0.0000   0.0000   0.0000
     0.0000   0.0000   0.0000   0.0000   0.0000   0.0000   0.0000   0.0000
     0.0000   0.0000   0.0000   0.0000   0.0000   0.0000   0.0000   0.0000
     0.0000   0.0000   0.0000   0.0000   0.0000   0.0000   0.0000   0.0000
     0.0000   0.0000   0.0000   0.0000

          k = 0.1667 0.5774 0.0000 (  2741 PWs)   bands (ev):

   -15.5872 -14.5682  -9.9672  -3.4848  -0.2706   8.1955   9.8588   9.8925
    10.0734  11.0190  11.2664  11.3036  11.9605  13.2108  13.6717  13.8643
    14.3799  16.1349  17.1248  17.5138  17.8630  18.5447  18.7342  19.6160
    19.6241  21.2083  21.3598  21.7065  22.4248  22.4629  23.3178  24.5276
    25.2610  25.8159  26.7069  27.2464  29.0620  31.1027  31.3771  31.5803
    32.1737  32.3521  34.5529  35.8640  35.9263  36.6295  37.2397  37.6059
    38.8174  39.0131  39.7453  39.8373  40.1554  40.9010  42.3060  42.6194
    43.1879  44.2179  46.4222  47.0256  47.6863  48.1004  48.3362  48.4156
    49.3726  50.1240  50.2061  51.3186  51.9775  52.4762  52.4916  52.5219
    53.0214  53.9526  53.9550  54.5067  55.1266  55.3261  55.6492  55.8119
    56.8598  56.8629  57.5634  58.7425

     occupation numbers 
     1.0000   1.0000   1.0000   1.0000   0.0000   0.0000   0.0000   0.0000
     0.0000   0.0000   0.0000   0.0000   0.0000   0.0000   0.0000   0.0000
     0.0000   0.0000   0.0000   0.0000   0.0000   0.0000   0.0000   0.0000
     0.0000   0.0000   0.0000   0.0000   0.0000   0.0000   0.0000   0.0000
     0.0000   0.0000   0.0000   0.0000   0.0000   0.0000   0.0000   0.0000
     0.0000   0.0000   0.0000   0.0000   0.0000   0.0000   0.0000   0.0000
     0.0000   0.0000   0.0000   0.0000   0.0000   0.0000   0.0000   0.0000
     0.0000   0.0000   0.0000   0.0000   0.0000   0.0000   0.0000   0.0000
     0.0000   0.0000   0.0000   0.0000   0.0000   0.0000   0.0000   0.0000
     0.0000   0.0000   0.0000   0.0000   0.0000   0.0000   0.0000   0.0000
     0.0000   0.0000   0.0000   0.0000

          k = 0.2500 0.4330 0.0000 (  2739 PWs)   bands (ev):

   -16.9647 -12.2654 -10.6870  -4.4591   1.0911   7.4150   8.0956   8.5990
     9.9143  10.4711  10.8827  11.3349  11.8085  14.8542  15.3462  15.8433
    16.0455  16.3911  16.8900  17.0057  17.0676  18.5345  19.1670  19.4010
    19.5513  20.4914  20.4973  21.2114  22.2523  23.0259  23.8030  24.1256
    24.6905  26.6437  26.9736  28.8888  29.5727  29.7252  30.0923  31.5108
    32.8981  35.4817  36.1056  36.3346  36.7288  37.3703  37.6071  39.5356
    39.7564  41.2254  41.2901  41.3520  41.5635  42.5518  42.7845  42.9645
    43.0009  44.2191  44.4216  44.5129  44.5810  45.6607  46.0474  46.4898
    46.9327  47.7347  48.3463  48.6437  48.7153  49.4115  51.4242  53.6543
    53.8184  53.8464  54.5490  54.5859  54.9934  55.2644  56.2886  56.3405
    56.9698  57.0799  57.9265  58.1137

     occupation numbers 
     1.0000   1.0000   1.0000   1.0000   0.0000   0.0000   0.0000   0.0000
     0.0000   0.0000   0.0000   0.0000   0.0000   0.0000   0.0000   0.0000
     0.0000   0.0000   0.0000   0.0000   0.0000   0.0000   0.0000   0.0000
     0.0000   0.0000   0.0000   0.0000   0.0000   0.0000   0.0000   0.0000
     0.0000   0.0000   0.0000   0.0000   0.0000   0.0000   0.0000   0.0000
     0.0000   0.0000   0.0000   0.0000   0.0000   0.0000   0.0000   0.0000
     0.0000   0.0000   0.0000   0.0000   0.0000   0.0000   0.0000   0.0000
     0.0000   0.0000   0.0000   0.0000   0.0000   0.0000   0.0000   0.0000
     0.0000   0.0000   0.0000   0.0000   0.0000   0.0000   0.0000   0.0000
     0.0000   0.0000   0.0000   0.0000   0.0000   0.0000   0.0000   0.0000
     0.0000   0.0000   0.0000   0.0000

          k = 0.2500 0.5292 0.0000 (  2761 PWs)   bands (ev):

   -15.5449 -13.6844 -11.3944  -3.0761  -0.4262   9.1399   9.5275  10.4524
    10.8347  11.0567  11.5437  12.9580  13.2692  13.4348  13.7653  14.5900
    15.5408  15.6115  16.2412  16.4576  16.5843  17.2238  17.3425  18.5140
    19.1911  19.8549  19.9691  21.2283  21.9059  22.4815  23.0913  23.5319
    24.4195  25.2245  26.7365  27.5236  29.2039  29.4165  30.8734  31.1200
    33.4718  33.6630  35.3863  36.1111  36.2303  39.1852  39.2931  39.3745
    40.8161  40.8941  41.2745  41.4002  42.2091  42.7573  43.7826  43.8533
    44.4449  44.8814  44.9741  46.1799  46.5808  47.1465  47.3623  47.9189
    47.9374  49.1178  49.1726  49.6469  50.5339  51.1677  51.8837  51.9545
    52.2171  52.8550  53.0473  53.3282  53.5436  53.9775  54.2724  54.8081
    54.8526  56.6698  57.2497  57.2827

     occupation numbers 
     1.0000   1.0000   1.0000   1.0000   0.0000   0.0000   0.0000   0.0000
     0.0000   0.0000   0.0000   0.0000   0.0000   0.0000   0.0000   0.0000
     0.0000   0.0000   0.0000   0.0000   0.0000   0.0000   0.0000   0.0000
     0.0000   0.0000   0.0000   0.0000   0.0000   0.0000   0.0000   0.0000
     0.0000   0.0000   0.0000   0.0000   0.0000   0.0000   0.0000   0.0000
     0.0000   0.0000   0.0000   0.0000   0.0000   0.0000   0.0000   0.0000
     0.0000   0.0000   0.0000   0.0000   0.0000   0.0000   0.0000   0.0000
     0.0000   0.0000   0.0000   0.0000   0.0000   0.0000   0.0000   0.0000
     0.0000   0.0000   0.0000   0.0000   0.0000   0.0000   0.0000   0.0000
     0.0000   0.0000   0.0000   0.0000   0.0000   0.0000   0.0000   0.0000
     0.0000   0.0000   0.0000   0.0000

          k = 0.3333 0.5774 0.0000 (  2763 PWs)   bands (ev):

   -14.3297 -14.3297 -12.2859  -1.7224  -1.7224   8.8915  11.1363  11.1363
    11.7256  13.0459  13.0459  13.0840  13.0840  13.2271  13.7461  14.2344
    14.2344  15.2011  15.2239  15.2239  16.4140  16.6258  16.6258  17.7955
    19.0928  19.0928  20.6497  20.6497  20.7686  21.5297  22.9417  24.2877
    24.2877  26.2099  26.2099  26.5670  26.8844  30.5688  30.5688  33.2182
    33.2182  33.6133  33.8384  36.1140  36.1140  39.2524  40.9624  40.9624
    41.1712  41.1712  42.0268  42.7429  43.2424  43.2424  45.0827  45.9466
    45.9466  46.1987  46.1987  46.3060  46.5156  47.0445  47.0445  48.0790
    48.0790  48.8610  48.9662  49.4259  49.4259  49.9430  49.9430  51.5201
    51.5201  51.5542  52.2105  52.9427  52.9427  53.3223  53.4359  53.4359
    53.5272  55.3636  57.3946  57.3946

     occupation numbers 
     1.0000   1.0000   1.0000   0.5000   0.5000   0.0000   0.0000   0.0000
     0.0000   0.0000   0.0000   0.0000   0.0000   0.0000   0.0000   0.0000
     0.0000   0.0000   0.0000   0.0000   0.0000   0.0000   0.0000   0.0000
     0.0000   0.0000   0.0000   0.0000   0.0000   0.0000   0.0000   0.0000
     0.0000   0.0000   0.0000   0.0000   0.0000   0.0000   0.0000   0.0000
     0.0000   0.0000   0.0000   0.0000   0.0000   0.0000   0.0000   0.0000
     0.0000   0.0000   0.0000   0.0000   0.0000   0.0000   0.0000   0.0000
     0.0000   0.0000   0.0000   0.0000   0.0000   0.0000   0.0000   0.0000
     0.0000   0.0000   0.0000   0.0000   0.0000   0.0000   0.0000   0.0000
     0.0000   0.0000   0.0000   0.0000   0.0000   0.0000   0.0000   0.0000
     0.0000   0.0000   0.0000   0.0000

     the Fermi energy is    -1.7224 ev

!    total energy              =     -36.88668071 Ry

     total all-electron energy =      -152.414876 Ry
     estimated scf accuracy    <          7.2E-11 Ry
     smearing contrib. (-TS)   =      -0.00015672 Ry
     internal energy E=F+TS    =     -36.88652399 Ry

     The total energy is F=E-TS. E is the sum of the following terms:
     one-electron contribution =    -156.64630058 Ry
     hartree contribution      =      79.94151294 Ry
     xc contribution           =      -9.27154799 Ry
     ewald contribution        =      61.42337113 Ry
     one-center paw contrib.   =     -12.33355949 Ry
      -> PAW hartree energy AE =       9.50951622 Ry
      -> PAW hartree energy PS =      -9.50089842 Ry
      -> PAW xc energy AE      =     -10.67820165 Ry
      -> PAW xc energy PS      =       4.50280410 Ry
      -> total E_H with PAW    =      79.95013074 Ry
      -> total E_XC with PAW   =     -15.44694553 Ry

     convergence has been achieved in   6 iterations

     negative rho (up, down):  2.169E-04 0.000E+00

     Forces acting on atoms (cartesian axes, Ry/au):

     atom    1 type  1   force =     0.00000000    0.00000000    0.00000000
     atom    2 type  1   force =     0.00000000    0.00000000    0.00000000
     The non-local contrib.  to forces
     atom    1 type  1   force =     0.00000000   -0.00000000    0.00000000
     atom    2 type  1   force =     0.00000000    0.00000000   -0.00000000
     The ionic contribution  to forces
     atom    1 type  1   force =     0.00000000   -0.00000000    0.00000000
     atom    2 type  1   force =    -0.00000000    0.00000000    0.00000000
     The local contribution  to forces
     atom    1 type  1   force =     0.00000000   -0.00000000   -0.00000000
     atom    2 type  1   force =    -0.00000000    0.00000000   -0.00000000
     The core correction contribution to forces
     atom    1 type  1   force =    -0.00000000    0.00000000   -0.00000000
     atom    2 type  1   force =     0.00000000   -0.00000000   -0.00000000
     The Hubbard contrib.    to forces
     atom    1 type  1   force =     0.00000000    0.00000000    0.00000000
     atom    2 type  1   force =     0.00000000    0.00000000    0.00000000
     The SCF correction term to forces
     atom    1 type  1   force =    -0.00000000    0.00000000   -0.00000000
     atom    2 type  1   force =     0.00000000   -0.00000000   -0.00000000

     Total force =     0.000000     Total SCF correction =     0.000000


     Computing stress (Cartesian axis) and pressure


     negative rho (up, down):  2.169E-04 0.000E+00
          total   stress  (Ry/bohr**3)                   (kbar)     P=       -0.12
   0.00000008  -0.00000000   0.00000000            0.01       -0.00        0.00
   0.00000000   0.00000008   0.00000000            0.00        0.01        0.00
   0.00000000   0.00000000  -0.00000256            0.00        0.00       -0.38

     kinetic stress (kbar)   2582.91      0.00      0.00
                                0.00   2582.91      0.00
                                0.00      0.00   2932.49

     local   stress (kbar) -46757.73     -0.00     -0.00
                               -0.00 -46757.73     -0.00
                               -0.00     -0.00  46570.72

     nonloc. stress (kbar)    650.45      0.00      0.00
                                0.00    650.45     -0.00
                                0.00     -0.00    593.15

     hartree stress (kbar)  21811.36     -0.00      0.00
                               -0.00  21811.36     -0.00
                                0.00     -0.00 -21581.71

     exc-cor stress (kbar)    -46.22      0.00     -0.00
                                0.00    -46.22      0.00
                               -0.00      0.00    -75.52

     corecor stress (kbar)   -622.32     -0.00      0.00
                               -0.00   -622.32     -0.00
                                0.00     -0.00   -611.68

     ewald   stress (kbar)  22381.56      0.00     -0.00
                                0.00  22381.56     -0.00
                               -0.00     -0.00 -27827.83

     hubbard stress (kbar)      0.00      0.00      0.00
                                0.00      0.00      0.00
                                0.00      0.00      0.00

     DFT-D   stress (kbar)      0.00      0.00      0.00
                                0.00      0.00      0.00
                                0.00      0.00      0.00

     XDM     stress (kbar)      0.00      0.00      0.00
                                0.00      0.00      0.00
                                0.00      0.00      0.00

     dft-nl  stress (kbar)      0.00      0.00      0.00
                                0.00      0.00      0.00
                                0.00      0.00      0.00

     TS-vdW  stress (kbar)      0.00      0.00      0.00
                                0.00      0.00      0.00
                                0.00      0.00      0.00


                                0.00      0.00      0.00
                                0.00      0.00      0.00


                                0.00      0.00      0.00


     Writing all to output data dir ./graphene.save/
 
     init_run     :      4.63s CPU      5.28s WALL (       1 calls)
     electrons    :     13.62s CPU     17.68s WALL (       1 calls)
     forces       :      0.19s CPU      0.20s WALL (       1 calls)
     stress       :      1.56s CPU      1.59s WALL (       1 calls)

     Called by init_run:
     wfcinit      :      0.11s CPU      0.12s WALL (       1 calls)
     wfcinit:atom :      0.00s CPU      0.00s WALL (       3 calls)
     wfcinit:wfcr :      0.10s CPU      0.11s WALL (       3 calls)
     potinit      :      2.13s CPU      2.43s WALL (       1 calls)
     hinit0       :      0.99s CPU      1.25s WALL (       1 calls)

     Called by electrons:
     c_bands      :      6.98s CPU      8.67s WALL (       6 calls)
     sum_band     :      3.00s CPU      3.25s WALL (       6 calls)
     v_of_rho     :      0.41s CPU      0.91s WALL (       7 calls)
     v_h          :      0.01s CPU      0.02s WALL (       7 calls)
     v_xc         :      0.46s CPU      0.94s WALL (       9 calls)
     newd         :      0.60s CPU      0.74s WALL (       7 calls)
     PAW_pot      :      2.96s CPU      4.26s WALL (       7 calls)
     mix_rho      :      0.01s CPU      0.02s WALL (       6 calls)

     Called by c_bands:
     init_us_2    :      0.01s CPU      0.02s WALL (      45 calls)
     init_us_2:cp :      0.01s CPU      0.02s WALL (      45 calls)
     cegterg      :      2.68s CPU      4.21s WALL (      18 calls)

     Called by sum_band:
     sum_band:wei :      0.25s CPU      0.26s WALL (       6 calls)
     sum_band:loo :      0.32s CPU      0.40s WALL (       6 calls)
     sum_band:buf :      0.02s CPU      0.02s WALL (      18 calls)
     sum_band:ini :      0.01s CPU      0.01s WALL (      18 calls)
     sum_band:cal :      0.01s CPU      0.01s WALL (      18 calls)
     sum_band:bec :      0.00s CPU      0.00s WALL (      18 calls)
     addusdens    :      0.08s CPU      0.10s WALL (       6 calls)
     addusd:skk   :      0.00s CPU      0.00s WALL (       6 calls)
     addusd:dgemm :      0.01s CPU      0.01s WALL (       6 calls)
     addusd:qvan2 :      0.00s CPU      0.00s WALL (       6 calls)

     Called by *egterg:
     cdiaghg      :      0.53s CPU      0.68s WALL (      78 calls)
     cegterg:over :      0.24s CPU      0.25s WALL (      60 calls)
     cegterg:upda :      0.26s CPU      0.30s WALL (      60 calls)
     cegterg:last :      0.49s CPU      0.51s WALL (      43 calls)
     cdiaghg:chol :      0.03s CPU      0.06s WALL (      78 calls)
     cdiaghg:inve :      0.01s CPU      0.01s WALL (      78 calls)
     cdiaghg:para :      0.14s CPU      0.15s WALL (     156 calls)
     h_psi        :      1.08s CPU      2.25s WALL (      81 calls)
     s_psi        :      0.02s CPU      0.07s WALL (      81 calls)
     g_psi        :      0.01s CPU      0.01s WALL (      60 calls)

     Called by h_psi:
     h_psi:calbec :      0.05s CPU      0.05s WALL (      81 calls)
     vloc_psi     :      0.96s CPU      2.11s WALL (      81 calls)
     add_vuspsi   :      0.04s CPU      0.05s WALL (      81 calls)

     General routines
     calbec       :      0.06s CPU      0.07s WALL (     114 calls)
     fft          :      0.10s CPU      0.54s WALL (     114 calls)
     ffts         :      0.04s CPU      0.05s WALL (      13 calls)
     fftw         :      1.08s CPU      2.11s WALL (    9740 calls)
     interpolate  :      0.01s CPU      0.06s WALL (       7 calls)
 
     Parallel routines

     PAW routines
     PAW_pot      :      2.96s CPU      4.26s WALL (       7 calls)
     PAW_symme    :      0.68s CPU      0.70s WALL (      13 calls)
 
     PWSCF        :     21.29s CPU     27.74s WALL

 
   This run was terminated on:  22:44:18  10Jun2022            

=------------------------------------------------------------------------------=
   JOB DONE.
=------------------------------------------------------------------------------=
