
     Program PHONON v.7.0 starts on 24Jun2022 at 23:29:18 

     This program is part of the open-source Quantum ESPRESSO suite
     for quantum simulation of materials; please cite
         "P. Giannozzi et al., J. Phys.:Condens. Matter 21 395502 (2009);
         "P. Giannozzi et al., J. Phys.:Condens. Matter 29 465901 (2017);
         "P. Giannozzi et al., J. Chem. Phys. 152 154105 (2020);
          URL http://www.quantum-espresso.org", 
     in publications or presentations arising from this work. More details at
     http://www.quantum-espresso.org/quote

     Parallel version (MPI & OpenMP), running on      28 processor cores
     Number of MPI processes:                28
     Threads/MPI process:                     1

     MPI processes distributed on     1 nodes
     K-points division:     npool     =      14
     R & G space division:  proc/nbgrp/npool/nimage =       2
     55296 MiB available memory on the printing compute node when the environment starts
 
     Waiting for input...
     Reading input from standard input

     Reading xml data from directory:

     ./graphene.save/
     file C.pbe-n-kjpaw_psl.1.0.0.UPF: wavefunction(s)  2S 2P renormalized

     IMPORTANT: XC functional enforced from input :
     Exchange-correlation= PBE
                           (   1   4   3   4   0   0   0)
     Any further DFT definition will be discarded
     Please, verify this is what you really want

 
     Parallelization info
     --------------------
     sticks:   dense  smooth     PW     G-vecs:    dense   smooth      PW
     Min         360     237     75                47374    25727    4357
     Max         361     238     76                47383    25752    4366
     Sum         721     475    151                94757    51479    8723
 
     Using Slab Decomposition
 
 ----2D----2D----2D----2D----2D----2D----2D----2D----2D----2D----2D----2D
  The code is running with the 2D cutoff
  Please refer to:
  Sohier, T., Calandra, M., & Mauri, F. (2017), 
  Density functional perturbation theory for gated two-dimensional heterostructu
 res:
  Theoretical developments and application to flexural phonons in graphene.
  Physical Review B, 96(7), 75448. https://doi.org/10.1103/PhysRevB.96.075448
 ----2D----2D----2D----2D----2D----2D----2D----2D----2D----2D----2D----2D

     Check: negative core charge=   -0.000001

     negative rho (up, down):  7.892E-05 0.000E+00
     Reading collected, re-writing distributed wavefunctions


     Dynamical matrices for (12,12, 1)  uniform grid of q-points
     (  19 q-points):
       N         xq(1)         xq(2)         xq(3) 
       1   0.000000000   0.000000000   0.000000000
       2   0.000000000   0.096225045   0.000000000
       3   0.000000000   0.192450090   0.000000000
       4   0.000000000   0.288675135   0.000000000
       5   0.000000000   0.384900179   0.000000000
       6   0.000000000   0.481125224   0.000000000
       7   0.000000000  -0.577350269   0.000000000
       8   0.083333333   0.144337567   0.000000000
       9   0.083333333   0.240562612   0.000000000
      10   0.083333333   0.336787657   0.000000000
      11   0.083333333   0.433012702   0.000000000
      12   0.083333333   0.529237747   0.000000000
      13   0.166666667   0.288675135   0.000000000
      14   0.166666667   0.384900179   0.000000000
      15   0.166666667   0.481125224   0.000000000
      16   0.166666667   0.577350269   0.000000000
      17   0.250000000   0.433012702   0.000000000
      18   0.250000000   0.529237747   0.000000000
      19   0.333333333   0.577350269   0.000000000

     Saving dvscf to file. Distribute only q points, not irreducible represetations.

     Calculation of q =    0.0000000   0.0000000   0.0000000

     Phonons                                                                    

     bravais-lattice index     =            4
     lattice parameter (alat)  =       4.6623  a.u.
     unit-cell volume          =     533.6125 (a.u.)^3
     number of atoms/cell      =            2
     number of atomic types    =            1
     kinetic-energy cut-off    =      80.0000  Ry
     charge density cut-off    =     480.0000  Ry
     convergence threshold     =      1.0E-16
     beta                      =       0.7000
     number of iterations used =            4
     Exchange-correlation= PBE
                           (   1   4   3   4   0   0   0)


     celldm(1)=    4.66233  celldm(2)=    0.00000  celldm(3)=    6.07977
     celldm(4)=    0.00000  celldm(5)=    0.00000  celldm(6)=    0.00000

     crystal axes: (cart. coord. in units of alat)
               a(1) = (  1.0000  0.0000  0.0000 )  
               a(2) = ( -0.5000  0.8660  0.0000 )  
               a(3) = (  0.0000  0.0000  6.0798 )  

     reciprocal axes: (cart. coord. in units 2 pi/alat)
               b(1) = (  1.0000  0.5774  0.0000 )  
               b(2) = (  0.0000  1.1547  0.0000 )  
               b(3) = (  0.0000  0.0000  0.1645 )  


     Atoms inside the unit cell: 

     Cartesian axes

     site n.  atom      mass           positions (alat units)
        1     C   12.0107   tau(    1) = (   -0.00000    0.57735    3.03989  )
        2     C   12.0107   tau(    2) = (    0.50000    0.28868    3.03989  )

     Computing dynamical matrix for 
                    q = (   0.0000000   0.0000000   0.0000000 )
 
     25 Sym.Ops. (with q -> -q+G )


     G cutoff =  264.2937  (  47374 G-vectors)     FFT grid: ( 36, 36,200)
     G cutoff =  176.1958  (  25752 G-vectors)  smooth grid: ( 27, 27,162)

     number of k points=   127  Methfessel-Paxton smearing, width (Ry)=  0.0100

     PseudoPot. # 1 for C  read from file:
     ./pseudo/C.pbe-n-kjpaw_psl.1.0.0.UPF
     MD5 check sum: 6fec8efd722f5d988670a8dc528584a2
     Pseudo is Projector augmented-wave + core cor, Zval =  4.0
     Generated using "atomic" code by A. Dal Corso  v.5.1.2
     Shape of augmentation charge: PSQ
     Using radial grid of 1073 points,  4 beta functions with: 
                l(1) =   0
                l(2) =   0
                l(3) =   1
                l(4) =   1
     Q(r) pseudized with 0 coefficients 


     Mode symmetry, D_6h(6/mmm) point group:


     Atomic displacements:
     There are    4 irreducible representations

     Representation     1      1 modes -  To be done

     Representation     2      2 modes -  To be done

     Representation     3      1 modes -  To be done

     Representation     4      2 modes -  To be done



     Alpha used in Ewald sum =   2.8000

     negative rho (up, down):  7.892E-05 0.000E+00
     PHONON       :     15.77s CPU     28.12s WALL



     Representation #   1 mode #   1

     Self-consistent Calculation
 
     Pert. #  1: Fermi energy shift (Ry) =     0.0000E+00     0.0000E+00

      iter #   1 total cpu time :    32.8 secs   av.it.:   4.3
      thresh= 1.000E-02 alpha_mix =  0.700 |ddv_scf|^2 =  1.504E-07
 
     Pert. #  1: Fermi energy shift (Ry) =     0.0000E+00     0.0000E+00

      iter #   2 total cpu time :    40.3 secs   av.it.:   8.4
      thresh= 3.878E-05 alpha_mix =  0.700 |ddv_scf|^2 =  1.361E-08
 
     Pert. #  1: Fermi energy shift (Ry) =     1.3786E-25     0.0000E+00

      iter #   3 total cpu time :    47.7 secs   av.it.:   8.1
      thresh= 1.167E-05 alpha_mix =  0.700 |ddv_scf|^2 =  1.034E-11
 
     Pert. #  1: Fermi energy shift (Ry) =     0.0000E+00     0.0000E+00

      iter #   4 total cpu time :    56.6 secs   av.it.:   9.3
      thresh= 3.215E-07 alpha_mix =  0.700 |ddv_scf|^2 =  3.837E-13
 
     Pert. #  1: Fermi energy shift (Ry) =    -1.3786E-25     0.0000E+00

      iter #   5 total cpu time :    66.9 secs   av.it.:   8.2
      thresh= 6.194E-08 alpha_mix =  0.700 |ddv_scf|^2 =  1.253E-16
 
     Pert. #  1: Fermi energy shift (Ry) =    -1.3786E-25     0.0000E+00

      iter #   6 total cpu time :    71.7 secs   av.it.:   9.7
      thresh= 1.119E-09 alpha_mix =  0.700 |ddv_scf|^2 =  7.978E-18

     End of self-consistent calculation

     Convergence has been achieved 


     Representation #   2 modes #   2   3

     Self-consistent Calculation
 
     Pert. #  1: Fermi energy shift (Ry) =     7.2280E-20    -3.8265E-42
     Pert. #  2: Fermi energy shift (Ry) =     1.0842E-19     1.9132E-41

      iter #   1 total cpu time :    85.5 secs   av.it.:   5.7
      thresh= 1.000E-02 alpha_mix =  0.700 |ddv_scf|^2 =  3.202E-08
 
     Pert. #  1: Fermi energy shift (Ry) =     5.3645E-21    -6.8877E-41
     Pert. #  2: Fermi energy shift (Ry) =    -1.1294E-21     1.9132E-41

      iter #   2 total cpu time :   103.4 secs   av.it.:  11.2
      thresh= 1.789E-05 alpha_mix =  0.700 |ddv_scf|^2 =  1.737E-09
 
     Pert. #  1: Fermi energy shift (Ry) =     5.0822E-21    -3.8265E-42
     Pert. #  2: Fermi energy shift (Ry) =    -6.4939E-21     1.9132E-41

      iter #   3 total cpu time :   116.1 secs   av.it.:   9.9
      thresh= 4.168E-06 alpha_mix =  0.700 |ddv_scf|^2 =  4.617E-11
 
     Pert. #  1: Fermi energy shift (Ry) =     3.1058E-21    -3.0612E-41
     Pert. #  2: Fermi energy shift (Ry) =    -8.4703E-21     4.2091E-41

      iter #   4 total cpu time :   131.8 secs   av.it.:  10.1
      thresh= 6.795E-07 alpha_mix =  0.700 |ddv_scf|^2 =  1.414E-13
 
     Pert. #  1: Fermi energy shift (Ry) =     1.1011E-20    -3.0612E-41
     Pert. #  2: Fermi energy shift (Ry) =    -1.2705E-21     4.2091E-41

      iter #   5 total cpu time :   143.0 secs   av.it.:   9.1
      thresh= 3.760E-08 alpha_mix =  0.700 |ddv_scf|^2 =  2.993E-17

     End of self-consistent calculation

     Convergence has been achieved 


     Representation #   3 mode #   4

     Self-consistent Calculation
 
     Pert. #  1: Fermi energy shift (Ry) =     6.8932E-26     0.0000E+00

      iter #   1 total cpu time :   156.6 secs   av.it.:   6.6
      thresh= 1.000E-02 alpha_mix =  0.700 |ddv_scf|^2 =  1.279E-04
 
     Pert. #  1: Fermi energy shift (Ry) =     0.0000E+00     0.0000E+00

      iter #   2 total cpu time :   164.1 secs   av.it.:   9.0
      thresh= 1.131E-03 alpha_mix =  0.700 |ddv_scf|^2 =  2.079E-04
 
     Pert. #  1: Fermi energy shift (Ry) =    -1.3786E-25     0.0000E+00

      iter #   3 total cpu time :   172.9 secs   av.it.:   8.2
      thresh= 1.442E-03 alpha_mix =  0.700 |ddv_scf|^2 =  1.035E-07
 
     Pert. #  1: Fermi energy shift (Ry) =     0.0000E+00     0.0000E+00

      iter #   4 total cpu time :   180.5 secs   av.it.:   8.2
      thresh= 3.218E-05 alpha_mix =  0.700 |ddv_scf|^2 =  2.067E-10
 
     Pert. #  1: Fermi energy shift (Ry) =     0.0000E+00     0.0000E+00

      iter #   5 total cpu time :   189.0 secs   av.it.:   8.5
      thresh= 1.438E-06 alpha_mix =  0.700 |ddv_scf|^2 =  4.264E-11
 
     Pert. #  1: Fermi energy shift (Ry) =    -1.3786E-25     0.0000E+00

      iter #   6 total cpu time :   196.6 secs   av.it.:   8.0
      thresh= 6.530E-07 alpha_mix =  0.700 |ddv_scf|^2 =  9.713E-14
 
     Pert. #  1: Fermi energy shift (Ry) =    -1.3786E-25     0.0000E+00

      iter #   7 total cpu time :   202.4 secs   av.it.:   8.3
      thresh= 3.117E-08 alpha_mix =  0.700 |ddv_scf|^2 =  7.442E-17

     End of self-consistent calculation

     Convergence has been achieved 


     Representation #   4 modes #   5   6

     Self-consistent Calculation
 
     Pert. #  1: Fermi energy shift (Ry) =    -2.5849E-26    -8.0247E-36
     Pert. #  2: Fermi energy shift (Ry) =    -8.6165E-27    -2.4074E-35

      iter #   1 total cpu time :   217.1 secs   av.it.:   5.2
      thresh= 1.000E-02 alpha_mix =  0.700 |ddv_scf|^2 =  1.043E-08
 
     Pert. #  1: Fermi energy shift (Ry) =    -2.5849E-26     0.0000E+00
     Pert. #  2: Fermi energy shift (Ry) =     1.2494E-25    -1.5673E-38

      iter #   2 total cpu time :   233.8 secs   av.it.:  10.9
      thresh= 1.021E-05 alpha_mix =  0.700 |ddv_scf|^2 =  7.694E-10
 
     Pert. #  1: Fermi energy shift (Ry) =    -1.1201E-25     5.8775E-39
     Pert. #  2: Fermi energy shift (Ry) =    -8.6165E-27     0.0000E+00

      iter #   3 total cpu time :   249.9 secs   av.it.:  10.2
      thresh= 2.774E-06 alpha_mix =  0.700 |ddv_scf|^2 =  6.577E-12
 
     Pert. #  1: Fermi energy shift (Ry) =    -3.4466E-25     4.2857E-40
     Pert. #  2: Fermi energy shift (Ry) =     1.0340E-25     1.8367E-40

      iter #   4 total cpu time :   263.6 secs   av.it.:  10.5
      thresh= 2.564E-07 alpha_mix =  0.700 |ddv_scf|^2 =  1.194E-13
 
     Pert. #  1: Fermi energy shift (Ry) =    -2.1541E-25    -9.7958E-40
     Pert. #  2: Fermi energy shift (Ry) =     4.3082E-26    -3.3673E-40

      iter #   5 total cpu time :   272.7 secs   av.it.:   9.8
      thresh= 3.456E-08 alpha_mix =  0.700 |ddv_scf|^2 =  6.745E-17

     End of self-consistent calculation

     Convergence has been achieved 
 
     Number of q in the star =    1
     List of q in the star:
          1   0.000000000   0.000000000   0.000000000

     Diagonalizing the dynamical matrix

     q = (    0.000000000   0.000000000   0.000000000 ) 

 **************************************************************************
     freq (    1) =       0.791278 [THz] =      26.394193 [cm-1]
     freq (    2) =       0.791278 [THz] =      26.394193 [cm-1]
     freq (    3) =       1.760157 [THz] =      58.712528 [cm-1]
     freq (    4) =      26.237790 [THz] =     875.198458 [cm-1]
     freq (    5) =      46.185311 [THz] =    1540.576132 [cm-1]
     freq (    6) =      46.185311 [THz] =    1540.576132 [cm-1]
 **************************************************************************

     Mode symmetry, D_6h(6/mmm) point group:

     freq (   1-   2) =         26.4  [cm-1]   --> E_1u            I  
     freq (   3-   3) =         58.7  [cm-1]   --> A_2u            I  
     freq (   4-   4) =        875.2  [cm-1]   --> B_1g               
     freq (   5-   6) =       1540.6  [cm-1]   --> E_2g            R  

     Calculation of q =    0.0000000   0.0962250   0.0000000

     Subspace diagonalization in iterative solution of the eigenvalue problem:
     a serial algorithm will be used

 
     Parallelization info
     --------------------
     sticks:   dense  smooth     PW     G-vecs:    dense   smooth      PW
     Min         360     237     75                47374    25727    4473
     Max         361     238     76                47383    25752    4490
     Sum         721     475    151                94757    51479    8963
 
     Using Slab Decomposition
 

     Title: 
     Phonons                                                                    


     bravais-lattice index     =            4
     lattice parameter (alat)  =       4.6623  a.u.
     unit-cell volume          =     533.6125 (a.u.)^3
     number of atoms/cell      =            2
     number of atomic types    =            1
     number of electrons       =         8.00
     number of Kohn-Sham states=            8
     kinetic-energy cutoff     =      80.0000  Ry
     charge density cutoff     =     480.0000  Ry
     Exchange-correlation= PBE
                           (   1   4   3   4   0   0   0)

     celldm(1)=   4.662326  celldm(2)=   0.000000  celldm(3)=   6.079775
     celldm(4)=   0.000000  celldm(5)=   0.000000  celldm(6)=   0.000000

     crystal axes: (cart. coord. in units of alat)
               a(1) = (   1.000000   0.000000   0.000000 )  
               a(2) = (  -0.500000   0.866025   0.000000 )  
               a(3) = (   0.000000   0.000000   6.079775 )  

     reciprocal axes: (cart. coord. in units 2 pi/alat)
               b(1) = (  1.000000  0.577350  0.000000 )  
               b(2) = (  0.000000  1.154701  0.000000 )  
               b(3) = (  0.000000  0.000000  0.164480 )  

Write cell and positions for Wanner90.x
begin unit_cell_cart
Bohr
        4.6623259   0.0000000   0.0000000
       -2.3311629   4.0376926   0.0000000
        0.0000000   0.0000000  28.3458918
end unit_cell_cart

begin atoms_cart
Bohr
        C          -0.0000000   2.6917951  14.1729459
        C           2.3311629   1.3458975  14.1729459
end atoms_cart

     PseudoPot. # 1 for C  read from file:
     ./pseudo/C.pbe-n-kjpaw_psl.1.0.0.UPF
     MD5 check sum: 6fec8efd722f5d988670a8dc528584a2
     Pseudo is Projector augmented-wave + core cor, Zval =  4.0
     Generated using "atomic" code by A. Dal Corso  v.5.1.2
     Shape of augmentation charge: PSQ
     Using radial grid of 1073 points,  4 beta functions with: 
                l(1) =   0
                l(2) =   0
                l(3) =   1
                l(4) =   1
     Q(r) pseudized with 0 coefficients 


     atomic species   valence    mass     pseudopotential
        C              4.00    12.01070     C ( 1.00)

     24 Sym. Ops., with inversion, found



   Cartesian axes

     site n.     atom                  positions (alat units)
         1           C   tau(   1) = (  -0.0000000   0.5773503   3.0398875  )
         2           C   tau(   2) = (   0.5000000   0.2886751   3.0398875  )

     number of k points=  1332  Methfessel-Paxton smearing, width (Ry)=  0.0100

     Number of k-points >= 100: set verbosity='high' to print them.

     Dense  grid:    94757 G-vectors     FFT dimensions: (  36,  36, 200)

     Smooth grid:    51479 G-vectors     FFT dimensions: (  27,  27, 162)

     Estimated max dynamical RAM per process >      21.65 MB

     Estimated total dynamical RAM >     606.11 MB
 ----2D----2D----2D----2D----2D----2D----2D----2D----2D----2D----2D----2D
  The code is running with the 2D cutoff
  Please refer to:
  Sohier, T., Calandra, M., & Mauri, F. (2017), 
  Density functional perturbation theory for gated two-dimensional heterostructu
 res:
  Theoretical developments and application to flexural phonons in graphene.
  Physical Review B, 96(7), 75448. https://doi.org/10.1103/PhysRevB.96.075448
 ----2D----2D----2D----2D----2D----2D----2D----2D----2D----2D----2D----2D

     Check: negative core charge=   -0.000001

     The potential is recalculated from file :
     ./_ph0/graphene.q_2/graphene.save/charge-density


     negative rho (up, down):  7.892E-05 0.000E+00
     Starting wfcs are    8 atomic wfcs
     Checking if some PAW data can be deallocated... 

     Band Structure Calculation
     Davidson diagonalization with overlap

     ethr =  1.25E-10,  avg # of iterations = 23.3

     total cpu time spent up to now is       67.5 secs

     End of band structure calculation

     Number of k-points >= 100: set verbosity='high' to print the bands.

     the Fermi energy is    -4.2448 ev

     Writing config to output data dir ./_ph0/graphene.q_2/graphene.save/

     Phonons                                                                    

     bravais-lattice index     =            4
     lattice parameter (alat)  =       4.6623  a.u.
     unit-cell volume          =     533.6125 (a.u.)^3
     number of atoms/cell      =            2
     number of atomic types    =            1
     kinetic-energy cut-off    =      80.0000  Ry
     charge density cut-off    =     480.0000  Ry
     convergence threshold     =      1.0E-16
     beta                      =       0.7000
     number of iterations used =            4
     Exchange-correlation= PBE
                           (   1   4   3   4   0   0   0)


     celldm(1)=    4.66233  celldm(2)=    0.00000  celldm(3)=    6.07977
     celldm(4)=    0.00000  celldm(5)=    0.00000  celldm(6)=    0.00000

     crystal axes: (cart. coord. in units of alat)
               a(1) = (  1.0000  0.0000  0.0000 )  
               a(2) = ( -0.5000  0.8660  0.0000 )  
               a(3) = (  0.0000  0.0000  6.0798 )  

     reciprocal axes: (cart. coord. in units 2 pi/alat)
               b(1) = (  1.0000  0.5774  0.0000 )  
               b(2) = (  0.0000  1.1547  0.0000 )  
               b(3) = (  0.0000  0.0000  0.1645 )  


     Atoms inside the unit cell: 

     Cartesian axes

     site n.  atom      mass           positions (alat units)
        1     C   12.0107   tau(    1) = (   -0.00000    0.57735    3.03989  )
        2     C   12.0107   tau(    2) = (    0.50000    0.28868    3.03989  )

     Computing dynamical matrix for 
                    q = (   0.0000000   0.0962250   0.0000000 )
 
      4 Sym.Ops. (no q -> -q+G )


     G cutoff =  264.2937  (  47374 G-vectors)     FFT grid: ( 36, 36,200)
     G cutoff =  176.1958  (  25752 G-vectors)  smooth grid: ( 27, 27,162)

     number of k points=  1332  Methfessel-Paxton smearing, width (Ry)=  0.0100

     PseudoPot. # 1 for C  read from file:
     ./pseudo/C.pbe-n-kjpaw_psl.1.0.0.UPF
     MD5 check sum: 6fec8efd722f5d988670a8dc528584a2
     Pseudo is Projector augmented-wave + core cor, Zval =  4.0
     Generated using "atomic" code by A. Dal Corso  v.5.1.2
     Shape of augmentation charge: PSQ
     Using radial grid of 1073 points,  4 beta functions with: 
                l(1) =   0
                l(2) =   0
                l(3) =   1
                l(4) =   1
     Q(r) pseudized with 0 coefficients 


     Mode symmetry, C_2v (mm2)  point group:


     Atomic displacements:
     There are    6 irreducible representations

     Representation     1      1 modes -  To be done

     Representation     2      1 modes -  To be done

     Representation     3      1 modes -  To be done

     Representation     4      1 modes -  To be done

     Representation     5      1 modes -  To be done

     Representation     6      1 modes -  To be done



     Alpha used in Ewald sum =   2.8000

     negative rho (up, down):  7.892E-05 0.000E+00
     PHONON       :   4m 2.12s CPU   6m 3.76s WALL



     Representation #   1 mode #   1

     Self-consistent Calculation

      iter #   1 total cpu time :   372.6 secs   av.it.:   6.1
      thresh= 1.000E-02 alpha_mix =  0.700 |ddv_scf|^2 =  5.437E-05

      iter #   2 total cpu time :   384.4 secs   av.it.:   8.7
      thresh= 7.374E-04 alpha_mix =  0.700 |ddv_scf|^2 =  4.452E-04

      iter #   3 total cpu time :   397.4 secs   av.it.:   7.2
      thresh= 2.110E-03 alpha_mix =  0.700 |ddv_scf|^2 =  7.953E-09

      iter #   4 total cpu time :   417.3 secs   av.it.:  10.5
      thresh= 8.918E-06 alpha_mix =  0.700 |ddv_scf|^2 =  2.555E-09

      iter #   5 total cpu time :   429.4 secs   av.it.:  10.3
      thresh= 5.055E-06 alpha_mix =  0.700 |ddv_scf|^2 =  1.942E-10

      iter #   6 total cpu time :   443.6 secs   av.it.:  10.4
      thresh= 1.394E-06 alpha_mix =  0.700 |ddv_scf|^2 =  1.287E-11

      iter #   7 total cpu time :   458.3 secs   av.it.:   8.2
      thresh= 3.587E-07 alpha_mix =  0.700 |ddv_scf|^2 =  6.149E-12

      iter #   8 total cpu time :   475.9 secs   av.it.:   9.0
      thresh= 2.480E-07 alpha_mix =  0.700 |ddv_scf|^2 =  7.563E-12

      iter #   9 total cpu time :   491.2 secs   av.it.:   8.4
      thresh= 2.750E-07 alpha_mix =  0.700 |ddv_scf|^2 =  1.393E-14

      iter #  10 total cpu time :   504.2 secs   av.it.:   8.9
      thresh= 1.180E-08 alpha_mix =  0.700 |ddv_scf|^2 =  4.452E-16

      iter #  11 total cpu time :   521.4 secs   av.it.:  10.7
      thresh= 2.110E-09 alpha_mix =  0.700 |ddv_scf|^2 =  2.317E-16

      iter #  12 total cpu time :   532.5 secs   av.it.:  10.3
      thresh= 1.522E-09 alpha_mix =  0.700 |ddv_scf|^2 =  3.377E-18

     End of self-consistent calculation

     Convergence has been achieved 


     Representation #   2 mode #   2

     Self-consistent Calculation

      iter #   1 total cpu time :   550.0 secs   av.it.:   6.1
      thresh= 1.000E-02 alpha_mix =  0.700 |ddv_scf|^2 =  5.437E-05

      iter #   2 total cpu time :   561.7 secs   av.it.:   8.7
      thresh= 7.374E-04 alpha_mix =  0.700 |ddv_scf|^2 =  4.452E-04

      iter #   3 total cpu time :   572.2 secs   av.it.:   7.2
      thresh= 2.110E-03 alpha_mix =  0.700 |ddv_scf|^2 =  7.953E-09

      iter #   4 total cpu time :   592.9 secs   av.it.:  10.5
      thresh= 8.918E-06 alpha_mix =  0.700 |ddv_scf|^2 =  2.555E-09

      iter #   5 total cpu time :   605.9 secs   av.it.:  10.3
      thresh= 5.055E-06 alpha_mix =  0.700 |ddv_scf|^2 =  1.942E-10

      iter #   6 total cpu time :   619.1 secs   av.it.:  10.4
      thresh= 1.394E-06 alpha_mix =  0.700 |ddv_scf|^2 =  1.287E-11

      iter #   7 total cpu time :   635.2 secs   av.it.:   8.2
      thresh= 3.587E-07 alpha_mix =  0.700 |ddv_scf|^2 =  6.149E-12

      iter #   8 total cpu time :   654.3 secs   av.it.:   9.0
      thresh= 2.480E-07 alpha_mix =  0.700 |ddv_scf|^2 =  7.563E-12

      iter #   9 total cpu time :   669.7 secs   av.it.:   8.4
      thresh= 2.750E-07 alpha_mix =  0.700 |ddv_scf|^2 =  1.393E-14

      iter #  10 total cpu time :   683.8 secs   av.it.:   8.9
      thresh= 1.180E-08 alpha_mix =  0.700 |ddv_scf|^2 =  4.452E-16

      iter #  11 total cpu time :   699.5 secs   av.it.:  10.7
      thresh= 2.110E-09 alpha_mix =  0.700 |ddv_scf|^2 =  2.317E-16

      iter #  12 total cpu time :   709.6 secs   av.it.:  10.3
      thresh= 1.522E-09 alpha_mix =  0.700 |ddv_scf|^2 =  3.378E-18

     End of self-consistent calculation

     Convergence has been achieved 


     Representation #   3 mode #   3

     Self-consistent Calculation

      iter #   1 total cpu time :   725.1 secs   av.it.:   5.8
      thresh= 1.000E-02 alpha_mix =  0.700 |ddv_scf|^2 =  8.793E-08

      iter #   2 total cpu time :   737.7 secs   av.it.:  10.7
      thresh= 2.965E-05 alpha_mix =  0.700 |ddv_scf|^2 =  5.074E-09

      iter #   3 total cpu time :   756.1 secs   av.it.:   9.4
      thresh= 7.123E-06 alpha_mix =  0.700 |ddv_scf|^2 =  1.224E-10

      iter #   4 total cpu time :   770.7 secs   av.it.:   9.4
      thresh= 1.106E-06 alpha_mix =  0.700 |ddv_scf|^2 =  6.346E-13

      iter #   5 total cpu time :   783.2 secs   av.it.:   9.4
      thresh= 7.966E-08 alpha_mix =  0.700 |ddv_scf|^2 =  4.293E-15

      iter #   6 total cpu time :   796.5 secs   av.it.:  10.0
      thresh= 6.552E-09 alpha_mix =  0.700 |ddv_scf|^2 =  1.279E-17

     End of self-consistent calculation

     Convergence has been achieved 


     Representation #   4 mode #   4

     Self-consistent Calculation

      iter #   1 total cpu time :   809.2 secs   av.it.:   5.8
      thresh= 1.000E-02 alpha_mix =  0.700 |ddv_scf|^2 =  8.793E-08

      iter #   2 total cpu time :   826.6 secs   av.it.:  10.7
      thresh= 2.965E-05 alpha_mix =  0.700 |ddv_scf|^2 =  5.074E-09

      iter #   3 total cpu time :   839.3 secs   av.it.:   9.4
      thresh= 7.123E-06 alpha_mix =  0.700 |ddv_scf|^2 =  1.224E-10

      iter #   4 total cpu time :   852.6 secs   av.it.:   9.4
      thresh= 1.106E-06 alpha_mix =  0.700 |ddv_scf|^2 =  6.346E-13

      iter #   5 total cpu time :   864.7 secs   av.it.:   9.4
      thresh= 7.966E-08 alpha_mix =  0.700 |ddv_scf|^2 =  4.293E-15

      iter #   6 total cpu time :   875.8 secs   av.it.:  10.0
      thresh= 6.552E-09 alpha_mix =  0.700 |ddv_scf|^2 =  1.279E-17

     End of self-consistent calculation

     Convergence has been achieved 


     Representation #   5 mode #   5

     Self-consistent Calculation

      iter #   1 total cpu time :   889.1 secs   av.it.:   6.1
      thresh= 1.000E-02 alpha_mix =  0.700 |ddv_scf|^2 =  9.301E-06

      iter #   2 total cpu time :   904.8 secs   av.it.:   9.9
      thresh= 3.050E-04 alpha_mix =  0.700 |ddv_scf|^2 =  7.000E-06

      iter #   3 total cpu time :   922.0 secs   av.it.:   9.0
      thresh= 2.646E-04 alpha_mix =  0.700 |ddv_scf|^2 =  8.225E-09

      iter #   4 total cpu time :   935.2 secs   av.it.:   9.1
      thresh= 9.069E-06 alpha_mix =  0.700 |ddv_scf|^2 =  3.166E-11

      iter #   5 total cpu time :   948.0 secs   av.it.:   9.4
      thresh= 5.627E-07 alpha_mix =  0.700 |ddv_scf|^2 =  9.430E-13

      iter #   6 total cpu time :   962.1 secs   av.it.:   9.1
      thresh= 9.711E-08 alpha_mix =  0.700 |ddv_scf|^2 =  1.290E-15

      iter #   7 total cpu time :   974.4 secs   av.it.:  10.1
      thresh= 3.591E-09 alpha_mix =  0.700 |ddv_scf|^2 =  1.880E-17

     End of self-consistent calculation

     Convergence has been achieved 


     Representation #   6 mode #   6

     Self-consistent Calculation

      iter #   1 total cpu time :   988.4 secs   av.it.:   6.1
      thresh= 1.000E-02 alpha_mix =  0.700 |ddv_scf|^2 =  9.301E-06

      iter #   2 total cpu time :  1003.0 secs   av.it.:   9.9
      thresh= 3.050E-04 alpha_mix =  0.700 |ddv_scf|^2 =  7.000E-06

      iter #   3 total cpu time :  1018.1 secs   av.it.:   9.0
      thresh= 2.646E-04 alpha_mix =  0.700 |ddv_scf|^2 =  8.225E-09

      iter #   4 total cpu time :  1034.6 secs   av.it.:   9.1
      thresh= 9.069E-06 alpha_mix =  0.700 |ddv_scf|^2 =  3.166E-11

      iter #   5 total cpu time :  1047.1 secs   av.it.:   9.4
      thresh= 5.627E-07 alpha_mix =  0.700 |ddv_scf|^2 =  9.430E-13

      iter #   6 total cpu time :  1059.6 secs   av.it.:   9.1
      thresh= 9.711E-08 alpha_mix =  0.700 |ddv_scf|^2 =  1.290E-15

      iter #   7 total cpu time :  1071.5 secs   av.it.:  10.1
      thresh= 3.591E-09 alpha_mix =  0.700 |ddv_scf|^2 =  1.880E-17

     End of self-consistent calculation

     Convergence has been achieved 
 
     Number of q in the star =    6
     List of q in the star:
          1   0.000000000   0.096225045   0.000000000
          2   0.000000000  -0.096225045   0.000000000
          3  -0.083333333   0.048112522   0.000000000
          4  -0.083333333  -0.048112522   0.000000000
          5   0.083333333  -0.048112522   0.000000000
          6   0.083333333   0.048112522   0.000000000

     Diagonalizing the dynamical matrix

     q = (    0.000000000   0.096225045   0.000000000 ) 

 **************************************************************************
     freq (    1) =       1.838701 [THz] =      61.332468 [cm-1]
     freq (    2) =       5.353395 [THz] =     178.570045 [cm-1]
     freq (    3) =       8.410809 [THz] =     280.554395 [cm-1]
     freq (    4) =      26.081537 [THz] =     869.986417 [cm-1]
     freq (    5) =      46.250499 [THz] =    1542.750570 [cm-1]
     freq (    6) =      47.637533 [THz] =    1589.017052 [cm-1]
 **************************************************************************

     Mode symmetry, C_2v (mm2)  point group:

     freq (   1-   1) =         61.3  [cm-1]   --> B_2  D_4  S_4      
     freq (   2-   2) =        178.6  [cm-1]   --> B_1  D_3  S_3      
     freq (   3-   3) =        280.6  [cm-1]   --> A_1  D_1  S_1      
     freq (   4-   4) =        870.0  [cm-1]   --> B_2  D_4  S_4      
     freq (   5-   5) =       1542.8  [cm-1]   --> B_1  D_3  S_3      
     freq (   6-   6) =       1589.0  [cm-1]   --> A_1  D_1  S_1      

     Calculation of q =    0.0000000   0.1924501   0.0000000
 
     Parallelization info
     --------------------
     sticks:   dense  smooth     PW     G-vecs:    dense   smooth      PW
     Min         360     237     75                47374    25727    4617
     Max         361     238     76                47383    25752    4636
     Sum         721     475    151                94757    51479    9253
 
     Using Slab Decomposition
 

     Title: 
     Phonons                                                                    


     bravais-lattice index     =            4
     lattice parameter (alat)  =       4.6623  a.u.
     unit-cell volume          =     533.6125 (a.u.)^3
     number of atoms/cell      =            2
     number of atomic types    =            1
     number of electrons       =         8.00
     number of Kohn-Sham states=            8
     kinetic-energy cutoff     =      80.0000  Ry
     charge density cutoff     =     480.0000  Ry
     Exchange-correlation= PBE
                           (   1   4   3   4   0   0   0)

     celldm(1)=   4.662326  celldm(2)=   0.000000  celldm(3)=   6.079775
     celldm(4)=   0.000000  celldm(5)=   0.000000  celldm(6)=   0.000000

     crystal axes: (cart. coord. in units of alat)
               a(1) = (   1.000000   0.000000   0.000000 )  
               a(2) = (  -0.500000   0.866025   0.000000 )  
               a(3) = (   0.000000   0.000000   6.079775 )  

     reciprocal axes: (cart. coord. in units 2 pi/alat)
               b(1) = (  1.000000  0.577350  0.000000 )  
               b(2) = (  0.000000  1.154701  0.000000 )  
               b(3) = (  0.000000  0.000000  0.164480 )  

Write cell and positions for Wanner90.x
begin unit_cell_cart
Bohr
        4.6623259   0.0000000   0.0000000
       -2.3311629   4.0376926   0.0000000
        0.0000000   0.0000000  28.3458918
end unit_cell_cart

begin atoms_cart
Bohr
        C          -0.0000000   2.6917951  14.1729459
        C           2.3311629   1.3458975  14.1729459
end atoms_cart

     PseudoPot. # 1 for C  read from file:
     ./pseudo/C.pbe-n-kjpaw_psl.1.0.0.UPF
     MD5 check sum: 6fec8efd722f5d988670a8dc528584a2
     Pseudo is Projector augmented-wave + core cor, Zval =  4.0
     Generated using "atomic" code by A. Dal Corso  v.5.1.2
     Shape of augmentation charge: PSQ
     Using radial grid of 1073 points,  4 beta functions with: 
                l(1) =   0
                l(2) =   0
                l(3) =   1
                l(4) =   1
     Q(r) pseudized with 0 coefficients 


     atomic species   valence    mass     pseudopotential
        C              4.00    12.01070     C ( 1.00)

     24 Sym. Ops., with inversion, found



   Cartesian axes

     site n.     atom                  positions (alat units)
         1           C   tau(   1) = (  -0.0000000   0.5773503   3.0398875  )
         2           C   tau(   2) = (   0.5000000   0.2886751   3.0398875  )

     number of k points=  1332  Methfessel-Paxton smearing, width (Ry)=  0.0100

     Number of k-points >= 100: set verbosity='high' to print them.

     Dense  grid:    94757 G-vectors     FFT dimensions: (  36,  36, 200)

     Smooth grid:    51479 G-vectors     FFT dimensions: (  27,  27, 162)

     Estimated max dynamical RAM per process >      21.65 MB

     Estimated total dynamical RAM >     606.19 MB
 ----2D----2D----2D----2D----2D----2D----2D----2D----2D----2D----2D----2D
  The code is running with the 2D cutoff
  Please refer to:
  Sohier, T., Calandra, M., & Mauri, F. (2017), 
  Density functional perturbation theory for gated two-dimensional heterostructu
 res:
  Theoretical developments and application to flexural phonons in graphene.
  Physical Review B, 96(7), 75448. https://doi.org/10.1103/PhysRevB.96.075448
 ----2D----2D----2D----2D----2D----2D----2D----2D----2D----2D----2D----2D

     Check: negative core charge=   -0.000001

     The potential is recalculated from file :
     ./_ph0/graphene.q_3/graphene.save/charge-density


     negative rho (up, down):  7.892E-05 0.000E+00
     Starting wfcs are    8 atomic wfcs
     Checking if some PAW data can be deallocated... 

     Band Structure Calculation
     Davidson diagonalization with overlap

     ethr =  1.25E-10,  avg # of iterations = 23.3

     total cpu time spent up to now is      148.9 secs

     End of band structure calculation

     Number of k-points >= 100: set verbosity='high' to print the bands.

     the Fermi energy is    -4.2448 ev

     Writing config to output data dir ./_ph0/graphene.q_3/graphene.save/

     Phonons                                                                    

     bravais-lattice index     =            4
     lattice parameter (alat)  =       4.6623  a.u.
     unit-cell volume          =     533.6125 (a.u.)^3
     number of atoms/cell      =            2
     number of atomic types    =            1
     kinetic-energy cut-off    =      80.0000  Ry
     charge density cut-off    =     480.0000  Ry
     convergence threshold     =      1.0E-16
     beta                      =       0.7000
     number of iterations used =            4
     Exchange-correlation= PBE
                           (   1   4   3   4   0   0   0)


     celldm(1)=    4.66233  celldm(2)=    0.00000  celldm(3)=    6.07977
     celldm(4)=    0.00000  celldm(5)=    0.00000  celldm(6)=    0.00000

     crystal axes: (cart. coord. in units of alat)
               a(1) = (  1.0000  0.0000  0.0000 )  
               a(2) = ( -0.5000  0.8660  0.0000 )  
               a(3) = (  0.0000  0.0000  6.0798 )  

     reciprocal axes: (cart. coord. in units 2 pi/alat)
               b(1) = (  1.0000  0.5774  0.0000 )  
               b(2) = (  0.0000  1.1547  0.0000 )  
               b(3) = (  0.0000  0.0000  0.1645 )  


     Atoms inside the unit cell: 

     Cartesian axes

     site n.  atom      mass           positions (alat units)
        1     C   12.0107   tau(    1) = (   -0.00000    0.57735    3.03989  )
        2     C   12.0107   tau(    2) = (    0.50000    0.28868    3.03989  )

     Computing dynamical matrix for 
                    q = (   0.0000000   0.1924501   0.0000000 )
 
      4 Sym.Ops. (no q -> -q+G )


     G cutoff =  264.2937  (  47374 G-vectors)     FFT grid: ( 36, 36,200)
     G cutoff =  176.1958  (  25752 G-vectors)  smooth grid: ( 27, 27,162)

     number of k points=  1332  Methfessel-Paxton smearing, width (Ry)=  0.0100

     PseudoPot. # 1 for C  read from file:
     ./pseudo/C.pbe-n-kjpaw_psl.1.0.0.UPF
     MD5 check sum: 6fec8efd722f5d988670a8dc528584a2
     Pseudo is Projector augmented-wave + core cor, Zval =  4.0
     Generated using "atomic" code by A. Dal Corso  v.5.1.2
     Shape of augmentation charge: PSQ
     Using radial grid of 1073 points,  4 beta functions with: 
                l(1) =   0
                l(2) =   0
                l(3) =   1
                l(4) =   1
     Q(r) pseudized with 0 coefficients 


     Mode symmetry, C_2v (mm2)  point group:


     Atomic displacements:
     There are    6 irreducible representations

     Representation     1      1 modes -  To be done

     Representation     2      1 modes -  To be done

     Representation     3      1 modes -  To be done

     Representation     4      1 modes -  To be done

     Representation     5      1 modes -  To be done

     Representation     6      1 modes -  To be done



     Alpha used in Ewald sum =   2.8000

     negative rho (up, down):  7.892E-05 0.000E+00
     PHONON       :  13m 7.37s CPU  19m40.93s WALL



     Representation #   1 mode #   1

     Self-consistent Calculation

      iter #   1 total cpu time :  1189.5 secs   av.it.:   6.1
      thresh= 1.000E-02 alpha_mix =  0.700 |ddv_scf|^2 =  2.066E-05

      iter #   2 total cpu time :  1205.6 secs   av.it.:   9.7
      thresh= 4.545E-04 alpha_mix =  0.700 |ddv_scf|^2 =  1.307E-04

      iter #   3 total cpu time :  1224.2 secs   av.it.:   8.3
      thresh= 1.143E-03 alpha_mix =  0.700 |ddv_scf|^2 =  9.038E-09

      iter #   4 total cpu time :  1241.6 secs   av.it.:  11.0
      thresh= 9.507E-06 alpha_mix =  0.700 |ddv_scf|^2 =  4.401E-09

      iter #   5 total cpu time :  1260.0 secs   av.it.:  10.5
      thresh= 6.634E-06 alpha_mix =  0.700 |ddv_scf|^2 =  9.297E-11

      iter #   6 total cpu time :  1277.7 secs   av.it.:  10.4
      thresh= 9.642E-07 alpha_mix =  0.700 |ddv_scf|^2 =  4.480E-12

      iter #   7 total cpu time :  1297.9 secs   av.it.:   8.9
      thresh= 2.117E-07 alpha_mix =  0.700 |ddv_scf|^2 =  1.818E-12

      iter #   8 total cpu time :  1316.1 secs   av.it.:   9.0
      thresh= 1.348E-07 alpha_mix =  0.700 |ddv_scf|^2 =  5.472E-13

      iter #   9 total cpu time :  1341.2 secs   av.it.:   8.6
      thresh= 7.398E-08 alpha_mix =  0.700 |ddv_scf|^2 =  3.692E-15

      iter #  10 total cpu time :  1354.9 secs   av.it.:   9.3
      thresh= 6.076E-09 alpha_mix =  0.700 |ddv_scf|^2 =  1.107E-16

      iter #  11 total cpu time :  1370.4 secs   av.it.:  10.8
      thresh= 1.052E-09 alpha_mix =  0.700 |ddv_scf|^2 =  2.748E-17

     End of self-consistent calculation

     Convergence has been achieved 


     Representation #   2 mode #   2

     Self-consistent Calculation

      iter #   1 total cpu time :  1386.1 secs   av.it.:   6.1
      thresh= 1.000E-02 alpha_mix =  0.700 |ddv_scf|^2 =  2.066E-05

      iter #   2 total cpu time :  1399.5 secs   av.it.:   9.7
      thresh= 4.545E-04 alpha_mix =  0.700 |ddv_scf|^2 =  1.307E-04

      iter #   3 total cpu time :  1412.5 secs   av.it.:   8.3
      thresh= 1.143E-03 alpha_mix =  0.700 |ddv_scf|^2 =  9.038E-09

      iter #   4 total cpu time :  1427.5 secs   av.it.:  11.0
      thresh= 9.507E-06 alpha_mix =  0.700 |ddv_scf|^2 =  4.401E-09

      iter #   5 total cpu time :  1440.1 secs   av.it.:  10.5
      thresh= 6.634E-06 alpha_mix =  0.700 |ddv_scf|^2 =  9.297E-11

      iter #   6 total cpu time :  1453.9 secs   av.it.:  10.4
      thresh= 9.642E-07 alpha_mix =  0.700 |ddv_scf|^2 =  4.480E-12

      iter #   7 total cpu time :  1471.0 secs   av.it.:   8.9
      thresh= 2.117E-07 alpha_mix =  0.700 |ddv_scf|^2 =  1.816E-12

      iter #   8 total cpu time :  1485.7 secs   av.it.:   9.0
      thresh= 1.348E-07 alpha_mix =  0.700 |ddv_scf|^2 =  5.474E-13

      iter #   9 total cpu time :  1502.7 secs   av.it.:   8.6
      thresh= 7.398E-08 alpha_mix =  0.700 |ddv_scf|^2 =  3.692E-15

      iter #  10 total cpu time :  1517.0 secs   av.it.:   9.3
      thresh= 6.076E-09 alpha_mix =  0.700 |ddv_scf|^2 =  1.107E-16

      iter #  11 total cpu time :  1528.2 secs   av.it.:  10.8
      thresh= 1.052E-09 alpha_mix =  0.700 |ddv_scf|^2 =  2.748E-17

     End of self-consistent calculation

     Convergence has been achieved 


     Representation #   3 mode #   3

     Self-consistent Calculation

      iter #   1 total cpu time :  1543.5 secs   av.it.:   5.8
      thresh= 1.000E-02 alpha_mix =  0.700 |ddv_scf|^2 =  9.650E-08

      iter #   2 total cpu time :  1557.5 secs   av.it.:  10.6
      thresh= 3.106E-05 alpha_mix =  0.700 |ddv_scf|^2 =  5.261E-09

      iter #   3 total cpu time :  1573.4 secs   av.it.:   9.3
      thresh= 7.253E-06 alpha_mix =  0.700 |ddv_scf|^2 =  1.685E-10

      iter #   4 total cpu time :  1586.7 secs   av.it.:   9.3
      thresh= 1.298E-06 alpha_mix =  0.700 |ddv_scf|^2 =  7.380E-13

      iter #   5 total cpu time :  1599.7 secs   av.it.:   9.8
      thresh= 8.591E-08 alpha_mix =  0.700 |ddv_scf|^2 =  6.224E-15

      iter #   6 total cpu time :  1612.4 secs   av.it.:  10.2
      thresh= 7.889E-09 alpha_mix =  0.700 |ddv_scf|^2 =  1.170E-17

     End of self-consistent calculation

     Convergence has been achieved 


     Representation #   4 mode #   4

     Self-consistent Calculation

      iter #   1 total cpu time :  1626.0 secs   av.it.:   5.8
      thresh= 1.000E-02 alpha_mix =  0.700 |ddv_scf|^2 =  9.650E-08

      iter #   2 total cpu time :  1641.2 secs   av.it.:  10.6
      thresh= 3.106E-05 alpha_mix =  0.700 |ddv_scf|^2 =  5.261E-09

      iter #   3 total cpu time :  1654.6 secs   av.it.:   9.3
      thresh= 7.253E-06 alpha_mix =  0.700 |ddv_scf|^2 =  1.685E-10

      iter #   4 total cpu time :  1668.7 secs   av.it.:   9.3
      thresh= 1.298E-06 alpha_mix =  0.700 |ddv_scf|^2 =  7.380E-13

      iter #   5 total cpu time :  1683.3 secs   av.it.:   9.8
      thresh= 8.591E-08 alpha_mix =  0.700 |ddv_scf|^2 =  6.224E-15

      iter #   6 total cpu time :  1693.9 secs   av.it.:  10.2
      thresh= 7.889E-09 alpha_mix =  0.700 |ddv_scf|^2 =  1.170E-17

     End of self-consistent calculation

     Convergence has been achieved 


     Representation #   5 mode #   5

     Self-consistent Calculation

      iter #   1 total cpu time :  1708.9 secs   av.it.:   6.0
      thresh= 1.000E-02 alpha_mix =  0.700 |ddv_scf|^2 =  2.448E-06

      iter #   2 total cpu time :  1722.3 secs   av.it.:  10.1
      thresh= 1.565E-04 alpha_mix =  0.700 |ddv_scf|^2 =  8.082E-07

      iter #   3 total cpu time :  1737.6 secs   av.it.:   9.7
      thresh= 8.990E-05 alpha_mix =  0.700 |ddv_scf|^2 =  5.107E-09

      iter #   4 total cpu time :  1750.8 secs   av.it.:   9.1
      thresh= 7.146E-06 alpha_mix =  0.700 |ddv_scf|^2 =  4.040E-12

      iter #   5 total cpu time :  1763.2 secs   av.it.:   9.7
      thresh= 2.010E-07 alpha_mix =  0.700 |ddv_scf|^2 =  1.847E-13

      iter #   6 total cpu time :  1775.6 secs   av.it.:   8.9
      thresh= 4.298E-08 alpha_mix =  0.700 |ddv_scf|^2 =  1.443E-15

      iter #   7 total cpu time :  1787.6 secs   av.it.:  10.1
      thresh= 3.798E-09 alpha_mix =  0.700 |ddv_scf|^2 =  2.127E-17

     End of self-consistent calculation

     Convergence has been achieved 


     Representation #   6 mode #   6

     Self-consistent Calculation

      iter #   1 total cpu time :  1804.4 secs   av.it.:   6.0
      thresh= 1.000E-02 alpha_mix =  0.700 |ddv_scf|^2 =  2.448E-06

      iter #   2 total cpu time :  1818.5 secs   av.it.:  10.1
      thresh= 1.565E-04 alpha_mix =  0.700 |ddv_scf|^2 =  8.082E-07

      iter #   3 total cpu time :  1832.9 secs   av.it.:   9.7
      thresh= 8.990E-05 alpha_mix =  0.700 |ddv_scf|^2 =  5.107E-09

      iter #   4 total cpu time :  1847.4 secs   av.it.:   9.1
      thresh= 7.146E-06 alpha_mix =  0.700 |ddv_scf|^2 =  4.040E-12

      iter #   5 total cpu time :  1861.0 secs   av.it.:   9.7
      thresh= 2.010E-07 alpha_mix =  0.700 |ddv_scf|^2 =  1.847E-13

      iter #   6 total cpu time :  1873.7 secs   av.it.:   8.9
      thresh= 4.298E-08 alpha_mix =  0.700 |ddv_scf|^2 =  1.443E-15

      iter #   7 total cpu time :  1887.6 secs   av.it.:  10.1
      thresh= 3.798E-09 alpha_mix =  0.700 |ddv_scf|^2 =  2.127E-17

     End of self-consistent calculation

     Convergence has been achieved 
 
     Number of q in the star =    6
     List of q in the star:
          1   0.000000000   0.192450090   0.000000000
          2   0.000000000  -0.192450090   0.000000000
          3  -0.166666667   0.096225045   0.000000000
          4  -0.166666667  -0.096225045   0.000000000
          5   0.166666667  -0.096225045   0.000000000
          6   0.166666667   0.096225045   0.000000000

     Diagonalizing the dynamical matrix

     q = (    0.000000000   0.192450090   0.000000000 ) 

 **************************************************************************
     freq (    1) =       2.750092 [THz] =      91.733193 [cm-1]
     freq (    2) =      10.071139 [THz] =     335.937024 [cm-1]
     freq (    3) =      16.368741 [THz] =     546.002425 [cm-1]
     freq (    4) =      25.579928 [THz] =     853.254552 [cm-1]
     freq (    5) =      45.205472 [THz] =    1507.892248 [cm-1]
     freq (    6) =      47.987494 [THz] =    1600.690496 [cm-1]
 **************************************************************************

     Mode symmetry, C_2v (mm2)  point group:

     freq (   1-   1) =         91.7  [cm-1]   --> B_2  D_4  S_4      
     freq (   2-   2) =        335.9  [cm-1]   --> B_1  D_3  S_3      
     freq (   3-   3) =        546.0  [cm-1]   --> A_1  D_1  S_1      
     freq (   4-   4) =        853.3  [cm-1]   --> B_2  D_4  S_4      
     freq (   5-   5) =       1507.9  [cm-1]   --> B_1  D_3  S_3      
     freq (   6-   6) =       1600.7  [cm-1]   --> A_1  D_1  S_1      

     Calculation of q =    0.0000000   0.2886751   0.0000000
 
     Parallelization info
     --------------------
     sticks:   dense  smooth     PW     G-vecs:    dense   smooth      PW
     Min         360     237     75                47374    25727    4765
     Max         361     238     76                47383    25752    4788
     Sum         721     475    151                94757    51479    9553
 
     Using Slab Decomposition
 

     Title: 
     Phonons                                                                    


     bravais-lattice index     =            4
     lattice parameter (alat)  =       4.6623  a.u.
     unit-cell volume          =     533.6125 (a.u.)^3
     number of atoms/cell      =            2
     number of atomic types    =            1
     number of electrons       =         8.00
     number of Kohn-Sham states=            8
     kinetic-energy cutoff     =      80.0000  Ry
     charge density cutoff     =     480.0000  Ry
     Exchange-correlation= PBE
                           (   1   4   3   4   0   0   0)

     celldm(1)=   4.662326  celldm(2)=   0.000000  celldm(3)=   6.079775
     celldm(4)=   0.000000  celldm(5)=   0.000000  celldm(6)=   0.000000

     crystal axes: (cart. coord. in units of alat)
               a(1) = (   1.000000   0.000000   0.000000 )  
               a(2) = (  -0.500000   0.866025   0.000000 )  
               a(3) = (   0.000000   0.000000   6.079775 )  

     reciprocal axes: (cart. coord. in units 2 pi/alat)
               b(1) = (  1.000000  0.577350  0.000000 )  
               b(2) = (  0.000000  1.154701  0.000000 )  
               b(3) = (  0.000000  0.000000  0.164480 )  

Write cell and positions for Wanner90.x
begin unit_cell_cart
Bohr
        4.6623259   0.0000000   0.0000000
       -2.3311629   4.0376926   0.0000000
        0.0000000   0.0000000  28.3458918
end unit_cell_cart

begin atoms_cart
Bohr
        C          -0.0000000   2.6917951  14.1729459
        C           2.3311629   1.3458975  14.1729459
end atoms_cart

     PseudoPot. # 1 for C  read from file:
     ./pseudo/C.pbe-n-kjpaw_psl.1.0.0.UPF
     MD5 check sum: 6fec8efd722f5d988670a8dc528584a2
     Pseudo is Projector augmented-wave + core cor, Zval =  4.0
     Generated using "atomic" code by A. Dal Corso  v.5.1.2
     Shape of augmentation charge: PSQ
     Using radial grid of 1073 points,  4 beta functions with: 
                l(1) =   0
                l(2) =   0
                l(3) =   1
                l(4) =   1
     Q(r) pseudized with 0 coefficients 


     atomic species   valence    mass     pseudopotential
        C              4.00    12.01070     C ( 1.00)

     24 Sym. Ops., with inversion, found



   Cartesian axes

     site n.     atom                  positions (alat units)
         1           C   tau(   1) = (  -0.0000000   0.5773503   3.0398875  )
         2           C   tau(   2) = (   0.5000000   0.2886751   3.0398875  )

     number of k points=  1332  Methfessel-Paxton smearing, width (Ry)=  0.0100

     Number of k-points >= 100: set verbosity='high' to print them.

     Dense  grid:    94757 G-vectors     FFT dimensions: (  36,  36, 200)

     Smooth grid:    51479 G-vectors     FFT dimensions: (  27,  27, 162)

     Estimated max dynamical RAM per process >      21.65 MB

     Estimated total dynamical RAM >     606.28 MB
 ----2D----2D----2D----2D----2D----2D----2D----2D----2D----2D----2D----2D
  The code is running with the 2D cutoff
  Please refer to:
  Sohier, T., Calandra, M., & Mauri, F. (2017), 
  Density functional perturbation theory for gated two-dimensional heterostructu
 res:
  Theoretical developments and application to flexural phonons in graphene.
  Physical Review B, 96(7), 75448. https://doi.org/10.1103/PhysRevB.96.075448
 ----2D----2D----2D----2D----2D----2D----2D----2D----2D----2D----2D----2D

     Check: negative core charge=   -0.000001

     The potential is recalculated from file :
     ./_ph0/graphene.q_4/graphene.save/charge-density


     negative rho (up, down):  7.892E-05 0.000E+00
     Starting wfcs are    8 atomic wfcs
     Checking if some PAW data can be deallocated... 

     Band Structure Calculation
     Davidson diagonalization with overlap

     ethr =  1.25E-10,  avg # of iterations = 23.3

     total cpu time spent up to now is      222.9 secs

     End of band structure calculation

     Number of k-points >= 100: set verbosity='high' to print the bands.

     the Fermi energy is    -4.2448 ev

     Writing config to output data dir ./_ph0/graphene.q_4/graphene.save/

     Phonons                                                                    

     bravais-lattice index     =            4
     lattice parameter (alat)  =       4.6623  a.u.
     unit-cell volume          =     533.6125 (a.u.)^3
     number of atoms/cell      =            2
     number of atomic types    =            1
     kinetic-energy cut-off    =      80.0000  Ry
     charge density cut-off    =     480.0000  Ry
     convergence threshold     =      1.0E-16
     beta                      =       0.7000
     number of iterations used =            4
     Exchange-correlation= PBE
                           (   1   4   3   4   0   0   0)


     celldm(1)=    4.66233  celldm(2)=    0.00000  celldm(3)=    6.07977
     celldm(4)=    0.00000  celldm(5)=    0.00000  celldm(6)=    0.00000

     crystal axes: (cart. coord. in units of alat)
               a(1) = (  1.0000  0.0000  0.0000 )  
               a(2) = ( -0.5000  0.8660  0.0000 )  
               a(3) = (  0.0000  0.0000  6.0798 )  

     reciprocal axes: (cart. coord. in units 2 pi/alat)
               b(1) = (  1.0000  0.5774  0.0000 )  
               b(2) = (  0.0000  1.1547  0.0000 )  
               b(3) = (  0.0000  0.0000  0.1645 )  


     Atoms inside the unit cell: 

     Cartesian axes

     site n.  atom      mass           positions (alat units)
        1     C   12.0107   tau(    1) = (   -0.00000    0.57735    3.03989  )
        2     C   12.0107   tau(    2) = (    0.50000    0.28868    3.03989  )

     Computing dynamical matrix for 
                    q = (   0.0000000   0.2886751   0.0000000 )
 
      4 Sym.Ops. (no q -> -q+G )


     G cutoff =  264.2937  (  47374 G-vectors)     FFT grid: ( 36, 36,200)
     G cutoff =  176.1958  (  25752 G-vectors)  smooth grid: ( 27, 27,162)

     number of k points=  1332  Methfessel-Paxton smearing, width (Ry)=  0.0100

     PseudoPot. # 1 for C  read from file:
     ./pseudo/C.pbe-n-kjpaw_psl.1.0.0.UPF
     MD5 check sum: 6fec8efd722f5d988670a8dc528584a2
     Pseudo is Projector augmented-wave + core cor, Zval =  4.0
     Generated using "atomic" code by A. Dal Corso  v.5.1.2
     Shape of augmentation charge: PSQ
     Using radial grid of 1073 points,  4 beta functions with: 
                l(1) =   0
                l(2) =   0
                l(3) =   1
                l(4) =   1
     Q(r) pseudized with 0 coefficients 


     Mode symmetry, C_2v (mm2)  point group:


     Atomic displacements:
     There are    6 irreducible representations

     Representation     1      1 modes -  To be done

     Representation     2      1 modes -  To be done

     Representation     3      1 modes -  To be done

     Representation     4      1 modes -  To be done

     Representation     5      1 modes -  To be done

     Representation     6      1 modes -  To be done



     Alpha used in Ewald sum =   2.8000

     negative rho (up, down):  7.892E-05 0.000E+00
     PHONON       :  22m17.42s CPU  33m 9.06s WALL



     Representation #   1 mode #   1

     Self-consistent Calculation

      iter #   1 total cpu time :  2009.5 secs   av.it.:   6.2
      thresh= 1.000E-02 alpha_mix =  0.700 |ddv_scf|^2 =  9.018E-06

      iter #   2 total cpu time :  2022.2 secs   av.it.:  10.3
      thresh= 3.003E-04 alpha_mix =  0.700 |ddv_scf|^2 =  3.854E-05

      iter #   3 total cpu time :  2033.9 secs   av.it.:   9.0
      thresh= 6.208E-04 alpha_mix =  0.700 |ddv_scf|^2 =  1.799E-08

      iter #   4 total cpu time :  2047.5 secs   av.it.:  10.8
      thresh= 1.341E-05 alpha_mix =  0.700 |ddv_scf|^2 =  4.520E-09

      iter #   5 total cpu time :  2059.8 secs   av.it.:  10.5
      thresh= 6.723E-06 alpha_mix =  0.700 |ddv_scf|^2 =  1.070E-10

      iter #   6 total cpu time :  2073.7 secs   av.it.:  10.4
      thresh= 1.034E-06 alpha_mix =  0.700 |ddv_scf|^2 =  1.734E-12

      iter #   7 total cpu time :  2091.6 secs   av.it.:   9.5
      thresh= 1.317E-07 alpha_mix =  0.700 |ddv_scf|^2 =  4.273E-14

      iter #   8 total cpu time :  2106.2 secs   av.it.:   9.9
      thresh= 2.067E-08 alpha_mix =  0.700 |ddv_scf|^2 =  1.071E-13

      iter #   9 total cpu time :  2125.0 secs   av.it.:   9.1
      thresh= 3.273E-08 alpha_mix =  0.700 |ddv_scf|^2 =  3.919E-15

      iter #  10 total cpu time :  2139.6 secs   av.it.:   9.7
      thresh= 6.260E-09 alpha_mix =  0.700 |ddv_scf|^2 =  2.417E-16

      iter #  11 total cpu time :  2151.6 secs   av.it.:  10.6
      thresh= 1.555E-09 alpha_mix =  0.700 |ddv_scf|^2 =  1.807E-17

     End of self-consistent calculation

     Convergence has been achieved 


     Representation #   2 mode #   2

     Self-consistent Calculation

      iter #   1 total cpu time :  2165.5 secs   av.it.:   6.2
      thresh= 1.000E-02 alpha_mix =  0.700 |ddv_scf|^2 =  9.018E-06

      iter #   2 total cpu time :  2178.4 secs   av.it.:  10.3
      thresh= 3.003E-04 alpha_mix =  0.700 |ddv_scf|^2 =  3.854E-05

      iter #   3 total cpu time :  2195.0 secs   av.it.:   9.0
      thresh= 6.208E-04 alpha_mix =  0.700 |ddv_scf|^2 =  1.799E-08

      iter #   4 total cpu time :  2208.0 secs   av.it.:  10.8
      thresh= 1.341E-05 alpha_mix =  0.700 |ddv_scf|^2 =  4.520E-09

      iter #   5 total cpu time :  2222.3 secs   av.it.:  10.5
      thresh= 6.723E-06 alpha_mix =  0.700 |ddv_scf|^2 =  1.070E-10

      iter #   6 total cpu time :  2235.1 secs   av.it.:  10.4
      thresh= 1.034E-06 alpha_mix =  0.700 |ddv_scf|^2 =  1.734E-12

      iter #   7 total cpu time :  2253.4 secs   av.it.:   9.5
      thresh= 1.317E-07 alpha_mix =  0.700 |ddv_scf|^2 =  4.278E-14

      iter #   8 total cpu time :  2268.8 secs   av.it.:   9.9
      thresh= 2.068E-08 alpha_mix =  0.700 |ddv_scf|^2 =  1.073E-13

      iter #   9 total cpu time :  2285.5 secs   av.it.:   9.1
      thresh= 3.276E-08 alpha_mix =  0.700 |ddv_scf|^2 =  3.917E-15

      iter #  10 total cpu time :  2298.8 secs   av.it.:   9.7
      thresh= 6.259E-09 alpha_mix =  0.700 |ddv_scf|^2 =  2.417E-16

      iter #  11 total cpu time :  2310.4 secs   av.it.:  10.6
      thresh= 1.555E-09 alpha_mix =  0.700 |ddv_scf|^2 =  1.808E-17

     End of self-consistent calculation

     Convergence has been achieved 


     Representation #   3 mode #   3

     Self-consistent Calculation

      iter #   1 total cpu time :  2325.9 secs   av.it.:   5.8
      thresh= 1.000E-02 alpha_mix =  0.700 |ddv_scf|^2 =  1.091E-07

      iter #   2 total cpu time :  2339.7 secs   av.it.:  10.5
      thresh= 3.304E-05 alpha_mix =  0.700 |ddv_scf|^2 =  5.616E-09

      iter #   3 total cpu time :  2357.0 secs   av.it.:   9.5
      thresh= 7.494E-06 alpha_mix =  0.700 |ddv_scf|^2 =  2.353E-10

      iter #   4 total cpu time :  2370.2 secs   av.it.:   9.4
      thresh= 1.534E-06 alpha_mix =  0.700 |ddv_scf|^2 =  8.182E-13

      iter #   5 total cpu time :  2382.5 secs   av.it.:   9.8
      thresh= 9.045E-08 alpha_mix =  0.700 |ddv_scf|^2 =  4.074E-15

      iter #   6 total cpu time :  2395.7 secs   av.it.:  10.4
      thresh= 6.382E-09 alpha_mix =  0.700 |ddv_scf|^2 =  1.064E-17

     End of self-consistent calculation

     Convergence has been achieved 


     Representation #   4 mode #   4

     Self-consistent Calculation

      iter #   1 total cpu time :  2410.1 secs   av.it.:   5.8
      thresh= 1.000E-02 alpha_mix =  0.700 |ddv_scf|^2 =  1.091E-07

      iter #   2 total cpu time :  2423.9 secs   av.it.:  10.5
      thresh= 3.304E-05 alpha_mix =  0.700 |ddv_scf|^2 =  5.616E-09

      iter #   3 total cpu time :  2439.8 secs   av.it.:   9.5
      thresh= 7.494E-06 alpha_mix =  0.700 |ddv_scf|^2 =  2.353E-10

      iter #   4 total cpu time :  2452.5 secs   av.it.:   9.3
      thresh= 1.534E-06 alpha_mix =  0.700 |ddv_scf|^2 =  8.182E-13

      iter #   5 total cpu time :  2467.1 secs   av.it.:   9.8
      thresh= 9.045E-08 alpha_mix =  0.700 |ddv_scf|^2 =  4.074E-15

      iter #   6 total cpu time :  2477.9 secs   av.it.:  10.4
      thresh= 6.382E-09 alpha_mix =  0.700 |ddv_scf|^2 =  1.064E-17

     End of self-consistent calculation

     Convergence has been achieved 


     Representation #   5 mode #   5

     Self-consistent Calculation

      iter #   1 total cpu time :  2493.3 secs   av.it.:   6.1
      thresh= 1.000E-02 alpha_mix =  0.700 |ddv_scf|^2 =  9.476E-07

      iter #   2 total cpu time :  2508.3 secs   av.it.:  10.3
      thresh= 9.734E-05 alpha_mix =  0.700 |ddv_scf|^2 =  1.335E-07

      iter #   3 total cpu time :  2526.5 secs   av.it.:  10.1
      thresh= 3.654E-05 alpha_mix =  0.700 |ddv_scf|^2 =  4.103E-09

      iter #   4 total cpu time :  2544.1 secs   av.it.:   9.7
      thresh= 6.406E-06 alpha_mix =  0.700 |ddv_scf|^2 =  2.863E-12

      iter #   5 total cpu time :  2559.4 secs   av.it.:  10.1
      thresh= 1.692E-07 alpha_mix =  0.700 |ddv_scf|^2 =  1.254E-13

      iter #   6 total cpu time :  2576.7 secs   av.it.:   9.5
      thresh= 3.541E-08 alpha_mix =  0.700 |ddv_scf|^2 =  7.087E-16

      iter #   7 total cpu time :  2587.3 secs   av.it.:   9.9
      thresh= 2.662E-09 alpha_mix =  0.700 |ddv_scf|^2 =  1.830E-17

     End of self-consistent calculation

     Convergence has been achieved 


     Representation #   6 mode #   6

     Self-consistent Calculation

      iter #   1 total cpu time :  2607.3 secs   av.it.:   6.1
      thresh= 1.000E-02 alpha_mix =  0.700 |ddv_scf|^2 =  9.476E-07

      iter #   2 total cpu time :  2621.6 secs   av.it.:  10.3
      thresh= 9.734E-05 alpha_mix =  0.700 |ddv_scf|^2 =  1.335E-07

      iter #   3 total cpu time :  2647.0 secs   av.it.:  10.1
      thresh= 3.654E-05 alpha_mix =  0.700 |ddv_scf|^2 =  4.103E-09

      iter #   4 total cpu time :  2661.7 secs   av.it.:   9.7
      thresh= 6.406E-06 alpha_mix =  0.700 |ddv_scf|^2 =  2.863E-12

      iter #   5 total cpu time :  2678.6 secs   av.it.:  10.1
      thresh= 1.692E-07 alpha_mix =  0.700 |ddv_scf|^2 =  1.254E-13

      iter #   6 total cpu time :  2694.2 secs   av.it.:   9.5
      thresh= 3.541E-08 alpha_mix =  0.700 |ddv_scf|^2 =  7.087E-16

      iter #   7 total cpu time :  2708.4 secs   av.it.:   9.9
      thresh= 2.662E-09 alpha_mix =  0.700 |ddv_scf|^2 =  1.830E-17

     End of self-consistent calculation

     Convergence has been achieved 
 
     Number of q in the star =    6
     List of q in the star:
          1   0.000000000   0.288675135   0.000000000
          2   0.000000000  -0.288675135   0.000000000
          3  -0.250000000   0.144337567   0.000000000
          4  -0.250000000  -0.144337567   0.000000000
          5   0.250000000  -0.144337567   0.000000000
          6   0.250000000   0.144337567   0.000000000

     Diagonalizing the dynamical matrix

     q = (    0.000000000   0.288675135   0.000000000 ) 

 **************************************************************************
     freq (    1) =       5.017989 [THz] =     167.382083 [cm-1]
     freq (    2) =      13.879385 [THz] =     462.966466 [cm-1]
     freq (    3) =      23.648102 [THz] =     788.815788 [cm-1]
     freq (    4) =      24.626581 [THz] =     821.454315 [cm-1]
     freq (    5) =      43.899865 [THz] =    1464.341876 [cm-1]
     freq (    6) =      47.445968 [THz] =    1582.627127 [cm-1]
 **************************************************************************

     Mode symmetry, C_2v (mm2)  point group:

     freq (   1-   1) =        167.4  [cm-1]   --> B_2  D_4  S_4      
     freq (   2-   2) =        463.0  [cm-1]   --> B_1  D_3  S_3      
     freq (   3-   3) =        788.8  [cm-1]   --> A_1  D_1  S_1      
     freq (   4-   4) =        821.5  [cm-1]   --> B_2  D_4  S_4      
     freq (   5-   5) =       1464.3  [cm-1]   --> B_1  D_3  S_3      
     freq (   6-   6) =       1582.6  [cm-1]   --> A_1  D_1  S_1      

     Calculation of q =    0.0000000   0.3849002   0.0000000
 
     Parallelization info
     --------------------
     sticks:   dense  smooth     PW     G-vecs:    dense   smooth      PW
     Min         360     237     81                47374    25727    4986
     Max         361     238     82                47383    25752    4989
     Sum         721     475    163                94757    51479    9975
 
     Using Slab Decomposition
 

     Title: 
     Phonons                                                                    


     bravais-lattice index     =            4
     lattice parameter (alat)  =       4.6623  a.u.
     unit-cell volume          =     533.6125 (a.u.)^3
     number of atoms/cell      =            2
     number of atomic types    =            1
     number of electrons       =         8.00
     number of Kohn-Sham states=            8
     kinetic-energy cutoff     =      80.0000  Ry
     charge density cutoff     =     480.0000  Ry
     Exchange-correlation= PBE
                           (   1   4   3   4   0   0   0)

     celldm(1)=   4.662326  celldm(2)=   0.000000  celldm(3)=   6.079775
     celldm(4)=   0.000000  celldm(5)=   0.000000  celldm(6)=   0.000000

     crystal axes: (cart. coord. in units of alat)
               a(1) = (   1.000000   0.000000   0.000000 )  
               a(2) = (  -0.500000   0.866025   0.000000 )  
               a(3) = (   0.000000   0.000000   6.079775 )  

     reciprocal axes: (cart. coord. in units 2 pi/alat)
               b(1) = (  1.000000  0.577350  0.000000 )  
               b(2) = (  0.000000  1.154701  0.000000 )  
               b(3) = (  0.000000  0.000000  0.164480 )  

Write cell and positions for Wanner90.x
begin unit_cell_cart
Bohr
        4.6623259   0.0000000   0.0000000
       -2.3311629   4.0376926   0.0000000
        0.0000000   0.0000000  28.3458918
end unit_cell_cart

begin atoms_cart
Bohr
        C          -0.0000000   2.6917951  14.1729459
        C           2.3311629   1.3458975  14.1729459
end atoms_cart

     PseudoPot. # 1 for C  read from file:
     ./pseudo/C.pbe-n-kjpaw_psl.1.0.0.UPF
     MD5 check sum: 6fec8efd722f5d988670a8dc528584a2
     Pseudo is Projector augmented-wave + core cor, Zval =  4.0
     Generated using "atomic" code by A. Dal Corso  v.5.1.2
     Shape of augmentation charge: PSQ
     Using radial grid of 1073 points,  4 beta functions with: 
                l(1) =   0
                l(2) =   0
                l(3) =   1
                l(4) =   1
     Q(r) pseudized with 0 coefficients 


     atomic species   valence    mass     pseudopotential
        C              4.00    12.01070     C ( 1.00)

     24 Sym. Ops., with inversion, found



   Cartesian axes

     site n.     atom                  positions (alat units)
         1           C   tau(   1) = (  -0.0000000   0.5773503   3.0398875  )
         2           C   tau(   2) = (   0.5000000   0.2886751   3.0398875  )

     number of k points=  1332  Methfessel-Paxton smearing, width (Ry)=  0.0100

     Number of k-points >= 100: set verbosity='high' to print them.

     Dense  grid:    94757 G-vectors     FFT dimensions: (  36,  36, 200)

     Smooth grid:    51479 G-vectors     FFT dimensions: (  27,  27, 162)

     Estimated max dynamical RAM per process >      21.66 MB

     Estimated total dynamical RAM >     606.36 MB
 ----2D----2D----2D----2D----2D----2D----2D----2D----2D----2D----2D----2D
  The code is running with the 2D cutoff
  Please refer to:
  Sohier, T., Calandra, M., & Mauri, F. (2017), 
  Density functional perturbation theory for gated two-dimensional heterostructu
 res:
  Theoretical developments and application to flexural phonons in graphene.
  Physical Review B, 96(7), 75448. https://doi.org/10.1103/PhysRevB.96.075448
 ----2D----2D----2D----2D----2D----2D----2D----2D----2D----2D----2D----2D

     Check: negative core charge=   -0.000001

     The potential is recalculated from file :
     ./_ph0/graphene.q_5/graphene.save/charge-density


     negative rho (up, down):  7.892E-05 0.000E+00
     Starting wfcs are    8 atomic wfcs
     Checking if some PAW data can be deallocated... 

     Band Structure Calculation
     Davidson diagonalization with overlap

     ethr =  1.25E-10,  avg # of iterations = 23.3

     total cpu time spent up to now is      299.7 secs

     End of band structure calculation

     Number of k-points >= 100: set verbosity='high' to print the bands.

     the Fermi energy is    -4.2448 ev

     Writing config to output data dir ./_ph0/graphene.q_5/graphene.save/

     Phonons                                                                    

     bravais-lattice index     =            4
     lattice parameter (alat)  =       4.6623  a.u.
     unit-cell volume          =     533.6125 (a.u.)^3
     number of atoms/cell      =            2
     number of atomic types    =            1
     kinetic-energy cut-off    =      80.0000  Ry
     charge density cut-off    =     480.0000  Ry
     convergence threshold     =      1.0E-16
     beta                      =       0.7000
     number of iterations used =            4
     Exchange-correlation= PBE
                           (   1   4   3   4   0   0   0)


     celldm(1)=    4.66233  celldm(2)=    0.00000  celldm(3)=    6.07977
     celldm(4)=    0.00000  celldm(5)=    0.00000  celldm(6)=    0.00000

     crystal axes: (cart. coord. in units of alat)
               a(1) = (  1.0000  0.0000  0.0000 )  
               a(2) = ( -0.5000  0.8660  0.0000 )  
               a(3) = (  0.0000  0.0000  6.0798 )  

     reciprocal axes: (cart. coord. in units 2 pi/alat)
               b(1) = (  1.0000  0.5774  0.0000 )  
               b(2) = (  0.0000  1.1547  0.0000 )  
               b(3) = (  0.0000  0.0000  0.1645 )  


     Atoms inside the unit cell: 

     Cartesian axes

     site n.  atom      mass           positions (alat units)
        1     C   12.0107   tau(    1) = (   -0.00000    0.57735    3.03989  )
        2     C   12.0107   tau(    2) = (    0.50000    0.28868    3.03989  )

     Computing dynamical matrix for 
                    q = (   0.0000000   0.3849002   0.0000000 )
 
      4 Sym.Ops. (no q -> -q+G )


     G cutoff =  264.2937  (  47374 G-vectors)     FFT grid: ( 36, 36,200)
     G cutoff =  176.1958  (  25752 G-vectors)  smooth grid: ( 27, 27,162)

     number of k points=  1332  Methfessel-Paxton smearing, width (Ry)=  0.0100

     PseudoPot. # 1 for C  read from file:
     ./pseudo/C.pbe-n-kjpaw_psl.1.0.0.UPF
     MD5 check sum: 6fec8efd722f5d988670a8dc528584a2
     Pseudo is Projector augmented-wave + core cor, Zval =  4.0
     Generated using "atomic" code by A. Dal Corso  v.5.1.2
     Shape of augmentation charge: PSQ
     Using radial grid of 1073 points,  4 beta functions with: 
                l(1) =   0
                l(2) =   0
                l(3) =   1
                l(4) =   1
     Q(r) pseudized with 0 coefficients 


     Mode symmetry, C_2v (mm2)  point group:


     Atomic displacements:
     There are    6 irreducible representations

     Representation     1      1 modes -  To be done

     Representation     2      1 modes -  To be done

     Representation     3      1 modes -  To be done

     Representation     4      1 modes -  To be done

     Representation     5      1 modes -  To be done

     Representation     6      1 modes -  To be done



     Alpha used in Ewald sum =   2.8000

     negative rho (up, down):  7.892E-05 0.000E+00
     PHONON       :  31m33.24s CPU  46m55.58s WALL



     Representation #   1 mode #   1

     Self-consistent Calculation

      iter #   1 total cpu time :  2846.6 secs   av.it.:   6.2
      thresh= 1.000E-02 alpha_mix =  0.700 |ddv_scf|^2 =  4.312E-06

      iter #   2 total cpu time :  2860.9 secs   av.it.:  10.6
      thresh= 2.077E-04 alpha_mix =  0.700 |ddv_scf|^2 =  1.147E-05

      iter #   3 total cpu time :  2877.7 secs   av.it.:   9.4
      thresh= 3.386E-04 alpha_mix =  0.700 |ddv_scf|^2 =  2.960E-08

      iter #   4 total cpu time :  2892.4 secs   av.it.:  10.7
      thresh= 1.720E-05 alpha_mix =  0.700 |ddv_scf|^2 =  5.029E-09

      iter #   5 total cpu time :  2910.5 secs   av.it.:  10.5
      thresh= 7.092E-06 alpha_mix =  0.700 |ddv_scf|^2 =  1.457E-10

      iter #   6 total cpu time :  2925.3 secs   av.it.:  10.5
      thresh= 1.207E-06 alpha_mix =  0.700 |ddv_scf|^2 =  5.581E-13

      iter #   7 total cpu time :  2948.1 secs   av.it.:   9.9
      thresh= 7.471E-08 alpha_mix =  0.700 |ddv_scf|^2 =  2.338E-14

      iter #   8 total cpu time :  2966.2 secs   av.it.:  10.0
      thresh= 1.529E-08 alpha_mix =  0.700 |ddv_scf|^2 =  5.919E-16

      iter #   9 total cpu time :  2988.0 secs   av.it.:  10.4
      thresh= 2.433E-09 alpha_mix =  0.700 |ddv_scf|^2 =  1.582E-15

      iter #  10 total cpu time :  3000.2 secs   av.it.:   9.4
      thresh= 3.978E-09 alpha_mix =  0.700 |ddv_scf|^2 =  1.789E-18

     End of self-consistent calculation

     Convergence has been achieved 


     Representation #   2 mode #   2

     Self-consistent Calculation

      iter #   1 total cpu time :  3020.0 secs   av.it.:   6.2
      thresh= 1.000E-02 alpha_mix =  0.700 |ddv_scf|^2 =  4.312E-06

      iter #   2 total cpu time :  3035.5 secs   av.it.:  10.6
      thresh= 2.077E-04 alpha_mix =  0.700 |ddv_scf|^2 =  1.147E-05

      iter #   3 total cpu time :  3061.4 secs   av.it.:   9.4
      thresh= 3.386E-04 alpha_mix =  0.700 |ddv_scf|^2 =  2.960E-08

      iter #   4 total cpu time :  3079.1 secs   av.it.:  10.7
      thresh= 1.720E-05 alpha_mix =  0.700 |ddv_scf|^2 =  5.029E-09

      iter #   5 total cpu time :  3094.1 secs   av.it.:  10.5
      thresh= 7.092E-06 alpha_mix =  0.700 |ddv_scf|^2 =  1.457E-10

      iter #   6 total cpu time :  3109.3 secs   av.it.:  10.5
      thresh= 1.207E-06 alpha_mix =  0.700 |ddv_scf|^2 =  5.581E-13

      iter #   7 total cpu time :  3128.2 secs   av.it.:   9.9
      thresh= 7.471E-08 alpha_mix =  0.700 |ddv_scf|^2 =  2.338E-14

      iter #   8 total cpu time :  3148.6 secs   av.it.:  10.0
      thresh= 1.529E-08 alpha_mix =  0.700 |ddv_scf|^2 =  5.906E-16

      iter #   9 total cpu time :  3168.7 secs   av.it.:  10.4
      thresh= 2.430E-09 alpha_mix =  0.700 |ddv_scf|^2 =  1.579E-15

      iter #  10 total cpu time :  3181.3 secs   av.it.:   9.4
      thresh= 3.974E-09 alpha_mix =  0.700 |ddv_scf|^2 =  1.788E-18

     End of self-consistent calculation

     Convergence has been achieved 


     Representation #   3 mode #   3

     Self-consistent Calculation

      iter #   1 total cpu time :  3200.5 secs   av.it.:   5.8
      thresh= 1.000E-02 alpha_mix =  0.700 |ddv_scf|^2 =  1.235E-07

      iter #   2 total cpu time :  3214.6 secs   av.it.:  10.5
      thresh= 3.515E-05 alpha_mix =  0.700 |ddv_scf|^2 =  6.151E-09

      iter #   3 total cpu time :  3234.6 secs   av.it.:   9.7
      thresh= 7.843E-06 alpha_mix =  0.700 |ddv_scf|^2 =  3.072E-10

      iter #   4 total cpu time :  3247.3 secs   av.it.:   9.4
      thresh= 1.753E-06 alpha_mix =  0.700 |ddv_scf|^2 =  8.601E-13

      iter #   5 total cpu time :  3264.7 secs   av.it.:   9.5
      thresh= 9.274E-08 alpha_mix =  0.700 |ddv_scf|^2 =  1.762E-15

      iter #   6 total cpu time :  3276.1 secs   av.it.:  10.6
      thresh= 4.198E-09 alpha_mix =  0.700 |ddv_scf|^2 =  1.088E-17

     End of self-consistent calculation

     Convergence has been achieved 


     Representation #   4 mode #   4

     Self-consistent Calculation

      iter #   1 total cpu time :  3300.2 secs   av.it.:   5.8
      thresh= 1.000E-02 alpha_mix =  0.700 |ddv_scf|^2 =  1.235E-07

      iter #   2 total cpu time :  3315.0 secs   av.it.:  10.5
      thresh= 3.515E-05 alpha_mix =  0.700 |ddv_scf|^2 =  6.151E-09

      iter #   3 total cpu time :  3331.1 secs   av.it.:   9.7
      thresh= 7.843E-06 alpha_mix =  0.700 |ddv_scf|^2 =  3.072E-10

      iter #   4 total cpu time :  3346.0 secs   av.it.:   9.4
      thresh= 1.753E-06 alpha_mix =  0.700 |ddv_scf|^2 =  8.601E-13

      iter #   5 total cpu time :  3363.9 secs   av.it.:   9.5
      thresh= 9.274E-08 alpha_mix =  0.700 |ddv_scf|^2 =  1.762E-15

      iter #   6 total cpu time :  3374.7 secs   av.it.:  10.6
      thresh= 4.198E-09 alpha_mix =  0.700 |ddv_scf|^2 =  1.088E-17

     End of self-consistent calculation

     Convergence has been achieved 


     Representation #   5 mode #   5

     Self-consistent Calculation

      iter #   1 total cpu time :  3391.4 secs   av.it.:   6.1
      thresh= 1.000E-02 alpha_mix =  0.700 |ddv_scf|^2 =  5.014E-07

      iter #   2 total cpu time :  3405.9 secs   av.it.:  10.4
      thresh= 7.081E-05 alpha_mix =  0.700 |ddv_scf|^2 =  3.737E-08

      iter #   3 total cpu time :  3429.0 secs   av.it.:  10.3
      thresh= 1.933E-05 alpha_mix =  0.700 |ddv_scf|^2 =  2.758E-09

      iter #   4 total cpu time :  3445.1 secs   av.it.:  10.0
      thresh= 5.252E-06 alpha_mix =  0.700 |ddv_scf|^2 =  2.297E-12

      iter #   5 total cpu time :  3460.7 secs   av.it.:   9.9
      thresh= 1.515E-07 alpha_mix =  0.700 |ddv_scf|^2 =  1.158E-13

      iter #   6 total cpu time :  3475.9 secs   av.it.:   9.4
      thresh= 3.403E-08 alpha_mix =  0.700 |ddv_scf|^2 =  2.397E-16

      iter #   7 total cpu time :  3486.7 secs   av.it.:  10.1
      thresh= 1.548E-09 alpha_mix =  0.700 |ddv_scf|^2 =  1.071E-17

     End of self-consistent calculation

     Convergence has been achieved 


     Representation #   6 mode #   6

     Self-consistent Calculation

      iter #   1 total cpu time :  3503.3 secs   av.it.:   6.1
      thresh= 1.000E-02 alpha_mix =  0.700 |ddv_scf|^2 =  5.014E-07

      iter #   2 total cpu time :  3516.8 secs   av.it.:  10.4
      thresh= 7.081E-05 alpha_mix =  0.700 |ddv_scf|^2 =  3.737E-08

      iter #   3 total cpu time :  3541.2 secs   av.it.:  10.3
      thresh= 1.933E-05 alpha_mix =  0.700 |ddv_scf|^2 =  2.758E-09

      iter #   4 total cpu time :  3555.6 secs   av.it.:  10.0
      thresh= 5.252E-06 alpha_mix =  0.700 |ddv_scf|^2 =  2.297E-12

      iter #   5 total cpu time :  3574.9 secs   av.it.:   9.9
      thresh= 1.515E-07 alpha_mix =  0.700 |ddv_scf|^2 =  1.158E-13

      iter #   6 total cpu time :  3588.7 secs   av.it.:   9.4
      thresh= 3.403E-08 alpha_mix =  0.700 |ddv_scf|^2 =  2.397E-16

      iter #   7 total cpu time :  3599.4 secs   av.it.:  10.1
      thresh= 1.548E-09 alpha_mix =  0.700 |ddv_scf|^2 =  1.071E-17

     End of self-consistent calculation

     Convergence has been achieved 
 
     Number of q in the star =    6
     List of q in the star:
          1   0.000000000   0.384900179   0.000000000
          2   0.000000000  -0.384900179   0.000000000
          3  -0.333333333   0.192450090   0.000000000
          4  -0.333333333  -0.192450090   0.000000000
          5   0.333333333  -0.192450090   0.000000000
          6   0.333333333   0.192450090   0.000000000

     Diagonalizing the dynamical matrix

     q = (    0.000000000   0.384900179   0.000000000 ) 

 **************************************************************************
     freq (    1) =       8.269011 [THz] =     275.824526 [cm-1]
     freq (    2) =      16.588859 [THz] =     553.344789 [cm-1]
     freq (    3) =      23.044808 [THz] =     768.692057 [cm-1]
     freq (    4) =      30.075557 [THz] =    1003.212598 [cm-1]
     freq (    5) =      42.717903 [THz] =    1424.915850 [cm-1]
     freq (    6) =      45.959469 [THz] =    1533.042863 [cm-1]
 **************************************************************************

     Mode symmetry, C_2v (mm2)  point group:

     freq (   1-   1) =        275.8  [cm-1]   --> B_2  D_4  S_4      
     freq (   2-   2) =        553.3  [cm-1]   --> B_1  D_3  S_3      
     freq (   3-   3) =        768.7  [cm-1]   --> B_2  D_4  S_4      
     freq (   4-   4) =       1003.2  [cm-1]   --> A_1  D_1  S_1      
     freq (   5-   5) =       1424.9  [cm-1]   --> B_1  D_3  S_3      
     freq (   6-   6) =       1533.0  [cm-1]   --> A_1  D_1  S_1      

     Calculation of q =    0.0000000   0.4811252   0.0000000
 
     Parallelization info
     --------------------
     sticks:   dense  smooth     PW     G-vecs:    dense   smooth      PW
     Min         360     237     81                47374    25727    5137
     Max         361     238     82                47383    25752    5140
     Sum         721     475    163                94757    51479   10277
 
     Using Slab Decomposition
 

     Title: 
     Phonons                                                                    


     bravais-lattice index     =            4
     lattice parameter (alat)  =       4.6623  a.u.
     unit-cell volume          =     533.6125 (a.u.)^3
     number of atoms/cell      =            2
     number of atomic types    =            1
     number of electrons       =         8.00
[...]

     Diagonalizing the dynamical matrix

     q = (    0.250000000   0.529237747   0.000000000 ) 

 **************************************************************************
     freq (    1) =      14.101204 [THz] =     470.365545 [cm-1]
     freq (    2) =      18.079620 [THz] =     603.071225 [cm-1]
     freq (    3) =      27.484445 [THz] =     916.782408 [cm-1]
     freq (    4) =      35.353038 [THz] =    1179.250409 [cm-1]
     freq (    5) =      39.081903 [THz] =    1303.631951 [cm-1]
     freq (    6) =      40.003665 [THz] =    1334.378637 [cm-1]
 **************************************************************************

     Mode symmetry, C_s (m)     point group:

     freq (   1-   1) =        470.4  [cm-1]   --> A''                
     freq (   2-   2) =        603.1  [cm-1]   --> A''                
     freq (   3-   3) =        916.8  [cm-1]   --> A'                 
     freq (   4-   4) =       1179.3  [cm-1]   --> A'                 
     freq (   5-   5) =       1303.6  [cm-1]   --> A'                 
     freq (   6-   6) =       1334.4  [cm-1]   --> A'                 

     Calculation of q =    0.3333333   0.5773503   0.0000000
 
     Parallelization info
     --------------------
     sticks:   dense  smooth     PW     G-vecs:    dense   smooth      PW
     Min         360     237     81                47374    25727    5501
     Max         361     238     82                47383    25752    5522
     Sum         721     475    163                94757    51479   11023
 
     Using Slab Decomposition
 

     Title: 
     Phonons                                                                    


     bravais-lattice index     =            4
     lattice parameter (alat)  =       4.6623  a.u.
     unit-cell volume          =     533.6125 (a.u.)^3
     number of atoms/cell      =            2
     number of atomic types    =            1
     number of electrons       =         8.00
     number of Kohn-Sham states=            8
     kinetic-energy cutoff     =      80.0000  Ry
     charge density cutoff     =     480.0000  Ry
     Exchange-correlation= PBE
                           (   1   4   3   4   0   0   0)

     celldm(1)=   4.662326  celldm(2)=   0.000000  celldm(3)=   6.079775
     celldm(4)=   0.000000  celldm(5)=   0.000000  celldm(6)=   0.000000

     crystal axes: (cart. coord. in units of alat)
               a(1) = (   1.000000   0.000000   0.000000 )  
               a(2) = (  -0.500000   0.866025   0.000000 )  
               a(3) = (   0.000000   0.000000   6.079775 )  

     reciprocal axes: (cart. coord. in units 2 pi/alat)
               b(1) = (  1.000000  0.577350  0.000000 )  
               b(2) = (  0.000000  1.154701  0.000000 )  
               b(3) = (  0.000000  0.000000  0.164480 )  

Write cell and positions for Wanner90.x
begin unit_cell_cart
Bohr
        4.6623259   0.0000000   0.0000000
       -2.3311629   4.0376926   0.0000000
        0.0000000   0.0000000  28.3458918
end unit_cell_cart

begin atoms_cart
Bohr
        C          -0.0000000   2.6917951  14.1729459
        C           2.3311629   1.3458975  14.1729459
end atoms_cart

     PseudoPot. # 1 for C  read from file:
     ./pseudo/C.pbe-n-kjpaw_psl.1.0.0.UPF
     MD5 check sum: 6fec8efd722f5d988670a8dc528584a2
     Pseudo is Projector augmented-wave + core cor, Zval =  4.0
     Generated using "atomic" code by A. Dal Corso  v.5.1.2
     Shape of augmentation charge: PSQ
     Using radial grid of 1073 points,  4 beta functions with: 
                l(1) =   0
                l(2) =   0
                l(3) =   1
                l(4) =   1
     Q(r) pseudized with 0 coefficients 


     atomic species   valence    mass     pseudopotential
        C              4.00    12.01070     C ( 1.00)

     24 Sym. Ops., with inversion, found



   Cartesian axes

     site n.     atom                  positions (alat units)
         1           C   tau(   1) = (  -0.0000000   0.5773503   3.0398875  )
         2           C   tau(   2) = (   0.5000000   0.2886751   3.0398875  )

     number of k points=   470  Methfessel-Paxton smearing, width (Ry)=  0.0100

     Number of k-points >= 100: set verbosity='high' to print them.

     Dense  grid:    94757 G-vectors     FFT dimensions: (  36,  36, 200)

     Smooth grid:    51479 G-vectors     FFT dimensions: (  27,  27, 162)

     Estimated max dynamical RAM per process >      21.66 MB

     Estimated total dynamical RAM >     606.60 MB
 ----2D----2D----2D----2D----2D----2D----2D----2D----2D----2D----2D----2D
  The code is running with the 2D cutoff
  Please refer to:
  Sohier, T., Calandra, M., & Mauri, F. (2017), 
  Density functional perturbation theory for gated two-dimensional heterostructu
 res:
  Theoretical developments and application to flexural phonons in graphene.
  Physical Review B, 96(7), 75448. https://doi.org/10.1103/PhysRevB.96.075448
 ----2D----2D----2D----2D----2D----2D----2D----2D----2D----2D----2D----2D

     Check: negative core charge=   -0.000001

     The potential is recalculated from file :
     ./_ph0/graphene.q_19/graphene.save/charge-density


     negative rho (up, down):  7.892E-05 0.000E+00
     Starting wfcs are    8 atomic wfcs
     Checking if some PAW data can be deallocated... 

     Band Structure Calculation
     Davidson diagonalization with overlap

     ethr =  1.25E-10,  avg # of iterations = 23.0

     total cpu time spent up to now is     1650.8 secs

     End of band structure calculation

     Number of k-points >= 100: set verbosity='high' to print the bands.

     the Fermi energy is    -4.2448 ev

     Writing config to output data dir ./_ph0/graphene.q_19/graphene.save/

     Phonons                                                                    

     bravais-lattice index     =            4
     lattice parameter (alat)  =       4.6623  a.u.
     unit-cell volume          =     533.6125 (a.u.)^3
     number of atoms/cell      =            2
     number of atomic types    =            1
     kinetic-energy cut-off    =      80.0000  Ry
     charge density cut-off    =     480.0000  Ry
     convergence threshold     =      1.0E-16
     beta                      =       0.7000
     number of iterations used =            4
     Exchange-correlation= PBE
                           (   1   4   3   4   0   0   0)


     celldm(1)=    4.66233  celldm(2)=    0.00000  celldm(3)=    6.07977
     celldm(4)=    0.00000  celldm(5)=    0.00000  celldm(6)=    0.00000

     crystal axes: (cart. coord. in units of alat)
               a(1) = (  1.0000  0.0000  0.0000 )  
               a(2) = ( -0.5000  0.8660  0.0000 )  
               a(3) = (  0.0000  0.0000  6.0798 )  

     reciprocal axes: (cart. coord. in units 2 pi/alat)
               b(1) = (  1.0000  0.5774  0.0000 )  
               b(2) = (  0.0000  1.1547  0.0000 )  
               b(3) = (  0.0000  0.0000  0.1645 )  


     Atoms inside the unit cell: 

     Cartesian axes

     site n.  atom      mass           positions (alat units)
        1     C   12.0107   tau(    1) = (   -0.00000    0.57735    3.03989  )
        2     C   12.0107   tau(    2) = (    0.50000    0.28868    3.03989  )

     Computing dynamical matrix for 
                    q = (   0.3333333   0.5773503   0.0000000 )
 
     12 Sym.Ops. (no q -> -q+G )


     G cutoff =  264.2937  (  47374 G-vectors)     FFT grid: ( 36, 36,200)
     G cutoff =  176.1958  (  25752 G-vectors)  smooth grid: ( 27, 27,162)

     number of k points=   470  Methfessel-Paxton smearing, width (Ry)=  0.0100

     PseudoPot. # 1 for C  read from file:
     ./pseudo/C.pbe-n-kjpaw_psl.1.0.0.UPF
     MD5 check sum: 6fec8efd722f5d988670a8dc528584a2
     Pseudo is Projector augmented-wave + core cor, Zval =  4.0
     Generated using "atomic" code by A. Dal Corso  v.5.1.2
     Shape of augmentation charge: PSQ
     Using radial grid of 1073 points,  4 beta functions with: 
                l(1) =   0
                l(2) =   0
                l(3) =   1
                l(4) =   1
     Q(r) pseudized with 0 coefficients 


     Mode symmetry, D_3h (-62m) point group:


     Atomic displacements:
     There are    4 irreducible representations

     Representation     1      1 modes -  To be done

     Representation     2      1 modes -  To be done

     Representation     3      2 modes -  To be done

     Representation     4      2 modes -  To be done



     Alpha used in Ewald sum =   2.8000

     negative rho (up, down):  7.892E-05 0.000E+00
     PHONON       :      3h19m CPU      4h48m WALL



     Representation #   1 mode #   1

     Self-consistent Calculation

      iter #   1 total cpu time : 17291.2 secs   av.it.:   6.0
      thresh= 1.000E-02 alpha_mix =  0.700 |ddv_scf|^2 =  1.117E-06

      iter #   2 total cpu time : 17299.8 secs   av.it.:  10.6
      thresh= 1.057E-04 alpha_mix =  0.700 |ddv_scf|^2 =  1.410E-07

      iter #   3 total cpu time : 17307.9 secs   av.it.:  10.5
      thresh= 3.755E-05 alpha_mix =  0.700 |ddv_scf|^2 =  4.335E-09

      iter #   4 total cpu time : 17317.2 secs   av.it.:   9.1
      thresh= 6.584E-06 alpha_mix =  0.700 |ddv_scf|^2 =  1.862E-12

      iter #   5 total cpu time : 17330.1 secs   av.it.:   9.8
      thresh= 1.364E-07 alpha_mix =  0.700 |ddv_scf|^2 =  2.870E-14

      iter #   6 total cpu time : 17339.5 secs   av.it.:   9.1
      thresh= 1.694E-08 alpha_mix =  0.700 |ddv_scf|^2 =  2.490E-16

      iter #   7 total cpu time : 17346.2 secs   av.it.:  10.7
      thresh= 1.578E-09 alpha_mix =  0.700 |ddv_scf|^2 =  1.487E-18

     End of self-consistent calculation

     Convergence has been achieved 


     Representation #   2 mode #   2

     Self-consistent Calculation

      iter #   1 total cpu time : 17358.2 secs   av.it.:   4.8
      thresh= 1.000E-02 alpha_mix =  0.700 |ddv_scf|^2 =  3.096E-07

      iter #   2 total cpu time : 17365.8 secs   av.it.:   7.9
      thresh= 5.564E-05 alpha_mix =  0.700 |ddv_scf|^2 =  2.778E-08

      iter #   3 total cpu time : 17373.8 secs   av.it.:   6.9
      thresh= 1.667E-05 alpha_mix =  0.700 |ddv_scf|^2 =  7.654E-12

      iter #   4 total cpu time : 17382.2 secs   av.it.:   8.9
      thresh= 2.767E-07 alpha_mix =  0.700 |ddv_scf|^2 =  1.786E-14

      iter #   5 total cpu time : 17390.8 secs   av.it.:   9.3
      thresh= 1.337E-08 alpha_mix =  0.700 |ddv_scf|^2 =  3.300E-16

      iter #   6 total cpu time : 17397.6 secs   av.it.:  10.3
      thresh= 1.817E-09 alpha_mix =  0.700 |ddv_scf|^2 =  1.073E-18

     End of self-consistent calculation

     Convergence has been achieved 


     Representation #   3 modes #   3   4

     Self-consistent Calculation

      iter #   1 total cpu time : 17413.6 secs   av.it.:   6.1
      thresh= 1.000E-02 alpha_mix =  0.700 |ddv_scf|^2 =  3.359E-07

      iter #   2 total cpu time : 17432.5 secs   av.it.:  11.6
      thresh= 5.796E-05 alpha_mix =  0.700 |ddv_scf|^2 =  3.602E-07

      iter #   3 total cpu time : 17447.9 secs   av.it.:  11.1
      thresh= 6.002E-05 alpha_mix =  0.700 |ddv_scf|^2 =  4.694E-09

      iter #   4 total cpu time : 17465.7 secs   av.it.:  10.8
      thresh= 6.852E-06 alpha_mix =  0.700 |ddv_scf|^2 =  1.797E-11

      iter #   5 total cpu time : 17480.9 secs   av.it.:  10.9
      thresh= 4.239E-07 alpha_mix =  0.700 |ddv_scf|^2 =  5.266E-14

      iter #   6 total cpu time : 17495.7 secs   av.it.:   9.9
      thresh= 2.295E-08 alpha_mix =  0.700 |ddv_scf|^2 =  4.709E-16

      iter #   7 total cpu time : 17509.1 secs   av.it.:  10.8
      thresh= 2.170E-09 alpha_mix =  0.700 |ddv_scf|^2 =  6.474E-18

     End of self-consistent calculation

     Convergence has been achieved 


     Representation #   4 modes #   5   6

     Self-consistent Calculation

      iter #   1 total cpu time : 17527.3 secs   av.it.:   6.1
      thresh= 1.000E-02 alpha_mix =  0.700 |ddv_scf|^2 =  1.782E-07

      iter #   2 total cpu time : 17543.0 secs   av.it.:  10.6
      thresh= 4.221E-05 alpha_mix =  0.700 |ddv_scf|^2 =  1.441E-08

      iter #   3 total cpu time : 17560.1 secs   av.it.:   9.6
      thresh= 1.200E-05 alpha_mix =  0.700 |ddv_scf|^2 =  8.101E-11

      iter #   4 total cpu time : 17575.3 secs   av.it.:  10.5
      thresh= 9.001E-07 alpha_mix =  0.700 |ddv_scf|^2 =  2.844E-13

      iter #   5 total cpu time : 17586.4 secs   av.it.:  10.3
      thresh= 5.333E-08 alpha_mix =  0.700 |ddv_scf|^2 =  9.745E-17

     End of self-consistent calculation

     Convergence has been achieved 
 
     Number of q in the star =    2
     List of q in the star:
          1   0.333333333   0.577350269   0.000000000
          2  -0.333333333   0.577350269   0.000000000

     Diagonalizing the dynamical matrix

     q = (    0.333333333   0.577350269   0.000000000 ) 

 **************************************************************************
     freq (    1) =      16.041881 [THz] =     535.099537 [cm-1]
     freq (    2) =      16.041881 [THz] =     535.099537 [cm-1]
     freq (    3) =      29.774168 [THz] =     993.159350 [cm-1]
     freq (    4) =      36.416659 [THz] =    1214.728995 [cm-1]
     freq (    5) =      36.416659 [THz] =    1214.728995 [cm-1]
     freq (    6) =      37.691731 [THz] =    1257.260810 [cm-1]
 **************************************************************************

     Mode symmetry, D_3h (-62m) point group:

     freq (   1-   2) =        535.1  [cm-1]   --> E''                
     freq (   3-   3) =        993.2  [cm-1]   --> A'_2               
     freq (   4-   5) =       1214.7  [cm-1]   --> E'                 
     freq (   6-   6) =       1257.3  [cm-1]   --> A'_1               
 
     init_run     :     38.76s CPU     50.27s WALL (      18 calls)
     electrons    :   1293.41s CPU   1558.35s WALL (      18 calls)

     Called by init_run:
     wfcinit      :      0.01s CPU      0.65s WALL (      18 calls)
     potinit      :     17.20s CPU     24.18s WALL (      18 calls)
     hinit0       :      4.16s CPU      4.23s WALL (      18 calls)

     Called by electrons:
     c_bands      :   1292.25s CPU   1556.73s WALL (      18 calls)
     v_of_rho     :      2.86s CPU      4.85s WALL (      19 calls)
     newd         :      3.31s CPU      3.39s WALL (      19 calls)
     PAW_pot      :      8.56s CPU     10.80s WALL (      19 calls)

     Called by c_bands:
     init_us_2    :     57.88s CPU     87.58s WALL (   76075 calls)
     init_us_2:cp :     57.68s CPU     87.30s WALL (   76075 calls)
     cegterg      :    571.16s CPU    705.79s WALL (    3438 calls)

     Called by *egterg:
     cdiaghg      :      9.79s CPU     11.58s WALL (   54166 calls)
     h_psi        :   4478.71s CPU   5136.27s WALL (  679487 calls)
     s_psi        :    151.42s CPU    168.21s WALL ( 1357417 calls)
     g_psi        :      7.26s CPU      8.96s WALL (   51916 calls)

     Called by h_psi:
     h_psi:calbec :    315.32s CPU    343.23s WALL (  679487 calls)
     vloc_psi     :   3971.82s CPU   4585.43s WALL (  679487 calls)
     add_vuspsi   :    155.06s CPU    167.46s WALL (  679487 calls)

     General routines
     calbec       :    456.83s CPU    506.88s WALL ( 1463404 calls)
     fft          :    108.26s CPU    151.95s WALL (   16748 calls)
     ffts         :     18.96s CPU     30.15s WALL (    9677 calls)
     fftw         :   3563.71s CPU   4207.29s WALL ( 5920732 calls)
     interpolate  :     26.61s CPU     49.65s WALL (    1933 calls)
     davcio       :     53.31s CPU    714.73s WALL (  310758 calls)
 
     Parallel routines
 
     PHONON       :      3h22m CPU      4h53m WALL

     INITIALIZATION: 
     phq_setup    :      8.68s CPU     23.91s WALL (      19 calls)
     phq_init     :    274.90s CPU    324.09s WALL (      19 calls)
 
     phq_init     :    274.90s CPU    324.09s WALL (      19 calls)
     set_drhoc    :     17.35s CPU     24.50s WALL (      57 calls)
     init_vloc    :      0.41s CPU      0.41s WALL (      19 calls)
     init_us_1    :      2.79s CPU      2.84s WALL (      19 calls)
     init_us_2    :     57.88s CPU     87.58s WALL (   76075 calls)
     newd         :      3.31s CPU      3.39s WALL (      19 calls)
     dvanqq       :     61.79s CPU     69.80s WALL (      19 calls)
     drho         :    163.62s CPU    191.80s WALL (      19 calls)
 
     DYNAMICAL MATRIX:
     dynmat0      :     36.01s CPU     42.86s WALL (      19 calls)
     phqscf       :  10502.09s CPU  15486.15s WALL (      19 calls)
     dynmatrix    :      2.85s CPU      6.73s WALL (      19 calls)
 
     phqscf       :  10502.09s CPU  15486.15s WALL (      19 calls)
     solve_linter :  10395.15s CPU  15265.67s WALL (     110 calls)
     drhodv       :     80.83s CPU     94.51s WALL (     110 calls)
 
     dynmat0      :     36.01s CPU     42.86s WALL (      19 calls)
     dynmat_us    :     12.84s CPU     13.92s WALL (      19 calls)
     d2ionq       :      0.39s CPU      0.78s WALL (      19 calls)
     dynmatcc     :     15.37s CPU     19.57s WALL (      19 calls)
 
     dynmat_us    :     12.84s CPU     13.92s WALL (      19 calls)
     addusdynmat  :      0.00s CPU      0.00s WALL (      19 calls)
 
     phqscf       :  10502.09s CPU  15486.15s WALL (      19 calls)
     solve_linter :  10395.15s CPU  15265.67s WALL (     110 calls)
 
     solve_linter :  10395.15s CPU  15265.67s WALL (     110 calls)
     dvqpsi_us    :    141.17s CPU    173.79s WALL (    6810 calls)
     sth_kernel   :   7151.63s CPU   8470.10s WALL (     867 calls)
     apply_dpot_b :    414.05s CPU    510.41s WALL (   49237 calls)
     ortho        :     47.57s CPU     56.98s WALL (   56047 calls)
     cgsolve      :   4800.46s CPU   5371.67s WALL (   56047 calls)
     incdrhoscf   :    669.40s CPU    780.39s WALL (   56047 calls)
     addusddens   :    191.29s CPU    253.13s WALL (     977 calls)
     dv_of_drho   :    181.73s CPU    197.38s WALL (     889 calls)
     mix_pot      :    103.31s CPU   2040.96s WALL (     867 calls)
     ef_shift     :      1.48s CPU      2.41s WALL (      23 calls)
     ef_shift_wfc :      0.00s CPU      0.02s WALL (       4 calls)
     localdos     :      4.41s CPU      4.51s WALL (       4 calls)
     psymdvscf    :    122.99s CPU    156.86s WALL (     867 calls)
     newdq        :    158.99s CPU    190.69s WALL (     867 calls)
     adddvscf     :     33.29s CPU     36.59s WALL (   49237 calls)
     drhodvus     :     11.07s CPU     17.39s WALL (     110 calls)
 
     dvqpsi_us    :    141.17s CPU    173.79s WALL (    6810 calls)
     dvqpsi_us_on :     10.45s CPU     11.50s WALL (    6810 calls)
 
     cgsolve      :   4800.46s CPU   5371.67s WALL (   56047 calls)
     ch_psi       :   4534.36s CPU   5082.52s WALL (  621883 calls)
 
     ch_psi       :   4534.36s CPU   5082.52s WALL (  621883 calls)
     h_psi        :   4478.71s CPU   5136.27s WALL (  679487 calls)
     last         :    380.08s CPU    419.30s WALL (  621883 calls)
 
     h_psi        :   4478.71s CPU   5136.27s WALL (  679487 calls)
     add_vuspsi   :    155.06s CPU    167.46s WALL (  679487 calls)
 
     incdrhoscf   :    669.40s CPU    780.39s WALL (   56047 calls)
     addusdbec    :     48.39s CPU     50.69s WALL (   62857 calls)
 
     drhodvus     :     11.07s CPU     17.39s WALL (     110 calls)
 
      General routines
     calbec       :    456.83s CPU    506.88s WALL ( 1463404 calls)
     fft          :    108.26s CPU    151.95s WALL (   16748 calls)
     ffts         :     18.96s CPU     30.15s WALL (    9677 calls)
     fftw         :   3563.71s CPU   4207.29s WALL ( 5920732 calls)
     davcio       :     53.31s CPU    714.73s WALL (  310758 calls)
     write_rec    :    216.30s CPU   1544.37s WALL (     977 calls)
 
 
     PHONON       :      3h22m CPU      4h53m WALL

 
   This run was terminated on:   4:22:35  25Jun2022            

=------------------------------------------------------------------------------=
   JOB DONE.
=------------------------------------------------------------------------------=
