                                                                                      
                                       ``:oss/                                        
                           `.+s+.     .+ys--yh+     `./ss+.                           
                          -sh//yy+`   +yy   +yy    -+h+-oyy                           
                          -yh- .oyy/.-sh.   .syo-.:sy-  /yh                           
                 `.-.`    `yh+   -oyyyo.     `/syys:    oys      `.`                  
               `/+ssys+-` `sh+      `                   oys`   .:osyo`                
               -yh- ./syyooyo`                          .sys+/oyo--yh/                
               `yy+    .-:-.                             `-/+/:`  -sh-                
                /yh.                                              oys                 
          ``..---hho---------`   .---------..`      `.-----.`    -hd+---.             
       `./osmNMMMMMMMMMMMMMMMs. +NNMMMMMMMMNNmh+.   yNMMMMMNm-  oNMMMMMNmo++:`        
       +sy--/sdMMMhyyyyyyyNMMh- .oyNMMmyyyyyhNMMm+` -yMMMdyyo:` .oyyNMMNhs+syy`       
       -yy/   /MMM+.`-+/``mMMy-   `mMMh:`````.dMMN:` `MMMy-`-dhhy```mMMy:``+hs        
        -yy+` /MMMo:-mMM+`-oo/.    mMMh:     `dMMN/`  dMMm:`dMMMMy..MMMo-.+yo`        
         .sys`/MMMMNNMMMs-         mMMmyooooymMMNo:   oMMM/sMMMMMM++MMN//oh:          
          `sh+/MMMhyyMMMs- `-`     mMMMMMMMMMNmy+-`   -MMMhMMMsmMMmdMMd/yy+           
    `-/+++oyy-/MMM+.`/hh/.`mNm:`   mMMd+/////:-.`      NMMMMMd/:NMMMMMy:/yyo/:.`      
   +os+//:-..-oMMMo:--:::-/MMMo. .-mMMd+---`           hMMMMN+. oMMMMMo. `-+osyso:`   
   syo     `mNMMMMMNNNNNNNNMMMo.oNNMMMMMNNNN:`         +MMMMs:`  dMMMN/`     ``:syo   
   /yh`     :syyyyyyyyyyyyyyyy+.`+syyyyyyyyo:`         .oyys:`   .oyys:`        +yh   
   -yh-        ````````````````    `````````              ``        ``          oys   
   -+h/------------------------::::::::://////++++++++++++++++++++++///////::::/yd:   
   shdddddddddddddddddddddddddddddhhhhhhhhyyyyyssssssssssssssssyyyyyyyhhhhhhhddddh`   
                                                                                      
  S. Ponce, E. R. Margine, C. Verdi, and F. Giustino,                                 
                                                Comput. Phys. Commun. 209, 116 (2016) 
                                                                                      

     Program EPW v.5.4.1 starts on 14Jun2022 at 16:21:46 

     This program is part of the open-source Quantum ESPRESSO suite
     for quantum simulation of materials; please cite
         "P. Giannozzi et al., J. Phys.:Condens. Matter 21 395502 (2009);
         "P. Giannozzi et al., J. Phys.:Condens. Matter 29 465901 (2017);
         "P. Giannozzi et al., J. Chem. Phys. 152 154105 (2020);
          URL http://www.quantum-espresso.org", 
     in publications or presentations arising from this work. More details at
     http://www.quantum-espresso.org/quote

     Parallel version (MPI & OpenMP), running on      28 processor cores
     Number of MPI processes:                 2
     Threads/MPI process:                    14

     MPI processes distributed on     1 nodes
     K-points division:     npool     =       2
     56924 MiB available memory on the printing compute node when the environment starts
 
     Waiting for input...
     Reading input from standard input

     WARNING: The specified dis_win_min is ignored.
              You should instead use bands_skipped = 'exclude_bands = ...'
              to control the lower bound of band manifold.

     Reading supplied temperature list.
                      
     ------------------------------------------------------------------------ 
                   RESTART - RESTART - RESTART - RESTART                         
     Restart is done without reading PWSCF save file.                  
     Be aware that some consistency checks are therefore not done.                  
     ------------------------------------------------------------------------ 
                      

     epw calculation of graphene                                                

     bravais-lattice index     =            0
     lattice parameter (a_0)   =       0.0000  a.u.
     unit-cell volume          =       0.0000 (a.u.)^3
     number of atoms/cell      =            0
     number of atomic types    =            0
     kinetic-energy cut-off    =       0.0000  Ry
     charge density cut-off    =       0.0000  Ry
     Exchange-correlation= not set
                           (  -1  -1  -1  -1  -1  -1  -1)


     celldm(1)=    0.00000  celldm(2)=    0.00000  celldm(3)=    0.00000
     celldm(4)=    0.00000  celldm(5)=    0.00000  celldm(6)=    0.00000

     crystal axes: (cart. coord. in units of a_0)
               a(1) = (  0.0000  0.0000  0.0000 )  
               a(2) = (  0.0000  0.0000  0.0000 )  
               a(3) = (  0.0000  0.0000  0.0000 )  

     reciprocal axes: (cart. coord. in units 2 pi/a_0)
               b(1) = (  0.0000  0.0000  0.0000 )  
               b(2) = (  0.0000  0.0000  0.0000 )  
               b(3) = (  0.0000  0.0000  0.0000 )  


     Atoms inside the unit cell: 

   Cartesian axes

     site n.  atom      mass           positions (a_0 units)

 
     No symmetry!

     G cutoff =    0.0000  (      0 G-vectors)     FFT grid: (  0,  0,  0)
     number of k points=    0
                       cart. coord. in units 2pi/a_0
     EPW          :      0.00s CPU      0.09s WALL

     EPW          :      0.00s CPU      0.09s WALL


     -------------------------------------------------------------------
     Using graphene.ukk from disk
     -------------------------------------------------------------------

     Symmetries of Bravais lattice:  24
     Symmetries of crystal:          24

     Do not need to read .epb files; read .fmt files


     Band disentanglement is used: nbndsub =    2
     Use zone-centred Wigner-Seitz cells 
     Number of WS vectors for electrons      157
     Number of WS vectors for phonons      157
     Number of WS vectors for electron-phonon      157
     Maximum number of cores for efficient parallelization      942
     Results may improve by using use_ws == .TRUE. 

     Reading Hamiltonian, Dynamical matrix and EP vertex in Wann rep from file


     Finished reading Wann rep data from file

     ===================================================================
     Memory usage:  VmHWM =       164Mb
                   VmPeak =      3701Mb
     ===================================================================
     
     Using uniform q-mesh:    6   6   1
     Size of q point mesh for interpolation:         36
     Using uniform k-mesh:    6   6   1
     Size of k point mesh for interpolation:         72
     Max number of k points per pool:               36

     Fermi energy coarse grid =  -1.722633 eV

     Fermi energy is calculated from the fine k-mesh: Ef =  -1.722633 eV

     ===================================================================

              ibndmin =     1  ebndmin =    -9.099 eV
              ibndmax =     2  ebndmax =     9.681 eV


     Number of ep-matrix elements per pool :          432 ~=    3.38 Kb (@ 8 bytes/ DP)
      
     A selecq.fmt file was found but re-created because selecqread == .FALSE. 
     We only need to compute       36 q-points
      
      Electron-phonon vertex |g| (meV)

     iq =       1 coord.:    0.0000000   0.0000000   0.0000000
     ik =       1 coord.:    0.0000000   0.0000000   0.0000000
      ibnd     jbnd     imode   enk[eV]    enk+q[eV]  omega(q)[meV]   |g|[meV]
     ------------------------------------------------------------------------------
        1        1        1     -9.0986     -9.0986        0.0000069045    0.1175840582E-02
        1        1        2     -9.0986     -9.0986        0.0000029632    0.1175840582E-02
        1        1        3     -9.0986     -9.0986        0.0000080767    0.1175840582E-02
        1        1        4     -9.0986     -9.0986      108.2167855761    0.1570368871E-08
        1        1        5     -9.0986     -9.0986      170.9358391588    0.9310326411E-06
        1        1        6     -9.0986     -9.0986      170.9358391588    0.9310326411E-06
        1        2        1     -9.0986      9.6811        0.0000069045    0.3338082571E-02
        1        2        2     -9.0986      9.6811        0.0000029632    0.3338082571E-02
        1        2        3     -9.0986      9.6811        0.0000080767    0.3338082571E-02
        1        2        4     -9.0986      9.6811      108.2167855761    0.6367010999E-06
        1        2        5     -9.0986      9.6811      170.9358391588    0.1318324421E-06
        1        2        6     -9.0986      9.6811      170.9358391588    0.1318324421E-06
        2        1        1      9.6811     -9.0986        0.0000069045    0.3721452084E-02
        2        1        2      9.6811     -9.0986        0.0000029632    0.3721452084E-02
        2        1        3      9.6811     -9.0986        0.0000080767    0.3721452084E-02
        2        1        4      9.6811     -9.0986      108.2167855761    0.7090653021E-06
        2        1        5      9.6811     -9.0986      170.9358391588    0.1348270012E-06
        2        1        6      9.6811     -9.0986      170.9358391588    0.1348270012E-06
        2        2        1      9.6811      9.6811        0.0000069045    0.4322055174E-02
        2        2        2      9.6811      9.6811        0.0000029632    0.4322055174E-02
        2        2        3      9.6811      9.6811        0.0000080767    0.4322055174E-02
        2        2        4      9.6811      9.6811      108.2167855761    0.2549677716E-05
        2        2        5      9.6811      9.6811      170.9358391588    0.7993299393E-07
        2        2        6      9.6811      9.6811      170.9358391588    0.7993299393E-07
     ------------------------------------------------------------------------------

     ik =       2 coord.:    0.0000000   0.1666667   0.0000000
      ibnd     jbnd     imode   enk[eV]    enk+q[eV]  omega(q)[meV]   |g|[meV]
     ------------------------------------------------------------------------------
        1        1        1     -8.3855     -8.3855        0.0000069045    0.1189004145E+03
        1        1        2     -8.3855     -8.3855        0.0000029632    0.1189004145E+03
        1        1        3     -8.3855     -8.3855        0.0000080767    0.1189004145E+03
        1        1        4     -8.3855     -8.3855      108.2167855761    0.1478000097E-05
        1        1        5     -8.3855     -8.3855      170.9358391588    0.1058682197E+02
        1        1        6     -8.3855     -8.3855      170.9358391588    0.1058682197E+02
        1        2        1     -8.3855      7.6170        0.0000069045    0.8908456288E+05
        1        2        2     -8.3855      7.6170        0.0000029632    0.8908456288E+05
        1        2        3     -8.3855      7.6170        0.0000080767    0.8908456288E+05
        1        2        4     -8.3855      7.6170      108.2167855761    0.8485622534E-06
        1        2        5     -8.3855      7.6170      170.9358391588    0.1859395336E+03
        1        2        6     -8.3855      7.6170      170.9358391588    0.1859395336E+03
        2        1        1      7.6170     -8.3855        0.0000069045    0.9144559701E+05
        2        1        2      7.6170     -8.3855        0.0000029632    0.9144559701E+05
        2        1        3      7.6170     -8.3855        0.0000080767    0.9144559701E+05
        2        1        4      7.6170     -8.3855      108.2167855761    0.9348165074E-06
        2        1        5      7.6170     -8.3855      170.9358391588    0.1905385607E+03
        2        1        6      7.6170     -8.3855      170.9358391588    0.1905385607E+03
        2        2        1      7.6170      7.6170        0.0000069045    0.2853240212E+01
        2        2        2      7.6170      7.6170        0.0000029632    0.2853240212E+01
        2        2        3      7.6170      7.6170        0.0000080767    0.2853240212E+01
        2        2        4      7.6170      7.6170      108.2167855761    0.1417677029E-05
        2        2        5      7.6170      7.6170      170.9358391588    0.7907215327E+02
        2        2        6      7.6170      7.6170      170.9358391588    0.7907215327E+02
     ------------------------------------------------------------------------------

     ik =       3 coord.:    0.0000000   0.3333333   0.0000000
      ibnd     jbnd     imode   enk[eV]    enk+q[eV]  omega(q)[meV]   |g|[meV]
     ------------------------------------------------------------------------------
        1        1        1     -6.2908     -6.2908        0.0000069045    0.1123276833E+03
        1        1        2     -6.2908     -6.2908        0.0000029632    0.1123276833E+03
        1        1        3     -6.2908     -6.2908        0.0000080767    0.1123276833E+03
        1        1        4     -6.2908     -6.2908      108.2167855761    0.2926413737E-06
        1        1        5     -6.2908     -6.2908      170.9358391588    0.5820636621E+02
        1        1        6     -6.2908     -6.2908      170.9358391588    0.5820636621E+02
        1        2        1     -6.2908      3.2068        0.0000069045    0.2249272411E+06
        1        2        2     -6.2908      3.2068        0.0000029632    0.2249272411E+06
        1        2        3     -6.2908      3.2068        0.0000080767    0.2249272411E+06
        1        2        4     -6.2908      3.2068      108.2167855761    0.1444393118E-06
        1        2        5     -6.2908      3.2068      170.9358391588    0.2481664115E+03
        1        2        6     -6.2908      3.2068      170.9358391588    0.2481664115E+03
        2        1        1      3.2068     -6.2908        0.0000069045    0.2282820648E+06
        2        1        2      3.2068     -6.2908        0.0000029632    0.2282820648E+06
        2        1        3      3.2068     -6.2908        0.0000080767    0.2282820648E+06
        2        1        4      3.2068     -6.2908      108.2167855761    0.1537117002E-06
        2        1        5      3.2068     -6.2908      170.9358391588    0.2516611143E+03
        2        1        6      3.2068     -6.2908      170.9358391588    0.2516611143E+03
        2        2        1      3.2068      3.2068        0.0000069045    0.1583387931E+02
        2        2        2      3.2068      3.2068        0.0000029632    0.1583387931E+02
        2        2        3      3.2068      3.2068        0.0000080767    0.1583387931E+02
        2        2        4      3.2068      3.2068      108.2167855761    0.8783542601E-07
        2        2        5      3.2068      3.2068      170.9358391588    0.1881164315E+03
        2        2        6      3.2068      3.2068      170.9358391588    0.1881164315E+03
     ------------------------------------------------------------------------------

     ik =       4 coord.:    0.0000000   0.5000000   0.0000000
      ibnd     jbnd     imode   enk[eV]    enk+q[eV]  omega(q)[meV]   |g|[meV]
     ------------------------------------------------------------------------------
        1        1        1     -4.0822     -4.0822        0.0000069045    0.3502889712E-01
        1        1        2     -4.0822     -4.0822        0.0000029632    0.3502889712E-01
        1        1        3     -4.0822     -4.0822        0.0000080767    0.3502889712E-01
        1        1        4     -4.0822     -4.0822      108.2167855761    0.5438745005E-05
        1        1        5     -4.0822     -4.0822      170.9358391588    0.2236972240E+03
        1        1        6     -4.0822     -4.0822      170.9358391588    0.2236972240E+03
        1        2        1     -4.0822     -0.0431        0.0000069045    0.2794305085E+06
        1        2        2     -4.0822     -0.0431        0.0000029632    0.2794305085E+06
        1        2        3     -4.0822     -0.0431        0.0000080767    0.2794305085E+06
        1        2        4     -4.0822     -0.0431      108.2167855761    0.4595987003E-05
        1        2        5     -4.0822     -0.0431      170.9358391588    0.1392392535E-05
        1        2        6     -4.0822     -0.0431      170.9358391588    0.1392392535E-05
        2        1        1     -0.0431     -4.0822        0.0000069045    0.2812010908E+06
        2        1        2     -0.0431     -4.0822        0.0000029632    0.2812010908E+06
        2        1        3     -0.0431     -4.0822        0.0000080767    0.2812010908E+06
        2        1        4     -0.0431     -4.0822      108.2167855761    0.4646474307E-05
        2        1        5     -0.0431     -4.0822      170.9358391588    0.1434914111E-05
        2        1        6     -0.0431     -4.0822      170.9358391588    0.1434914111E-05
        2        2        1     -0.0431     -0.0431        0.0000069045    0.3015082324E-01
        2        2        2     -0.0431     -0.0431        0.0000029632    0.3015082324E-01
        2        2        3     -0.0431     -0.0431        0.0000080767    0.3015082324E-01
        2        2        4     -0.0431     -0.0431      108.2167855761    0.5557680214E-05
        2        2        5     -0.0431     -0.0431      170.9358391588    0.3629140484E+03
        2        2        6     -0.0431     -0.0431      170.9358391588    0.3629140484E+03
     ------------------------------------------------------------------------------

     ik =       5 coord.:    0.0000000   0.6666667   0.0000000
      ibnd     jbnd     imode   enk[eV]    enk+q[eV]  omega(q)[meV]   |g|[meV]
     ------------------------------------------------------------------------------
        1        1        1     -6.2908     -6.2908        0.0000069045    0.1123276859E+03
        1        1        2     -6.2908     -6.2908        0.0000029632    0.1123276859E+03
        1        1        3     -6.2908     -6.2908        0.0000080767    0.1123276859E+03
        1        1        4     -6.2908     -6.2908      108.2167855761    0.9082579589E-07
        1        1        5     -6.2908     -6.2908      170.9358391588    0.5820636623E+02
        1        1        6     -6.2908     -6.2908      170.9358391588    0.5820636623E+02
        1        2        1     -6.2908      3.2068        0.0000069045    0.2249272412E+06
        1        2        2     -6.2908      3.2068        0.0000029632    0.2249272412E+06
        1        2        3     -6.2908      3.2068        0.0000080767    0.2249272412E+06
        1        2        4     -6.2908      3.2068      108.2167855761    0.2551314850E-06
        1        2        5     -6.2908      3.2068      170.9358391588    0.2481664115E+03
        1        2        6     -6.2908      3.2068      170.9358391588    0.2481664115E+03
        2        1        1      3.2068     -6.2908        0.0000069045    0.2282820649E+06
        2        1        2      3.2068     -6.2908        0.0000029632    0.2282820649E+06
        2        1        3      3.2068     -6.2908        0.0000080767    0.2282820649E+06
        2        1        4      3.2068     -6.2908      108.2167855761    0.2709230799E-06
        2        1        5      3.2068     -6.2908      170.9358391588    0.2516611144E+03
        2        1        6      3.2068     -6.2908      170.9358391588    0.2516611144E+03
        2        2        1      3.2068      3.2068        0.0000069045    0.1583387953E+02
        2        2        2      3.2068      3.2068        0.0000029632    0.1583387953E+02
        2        2        3      3.2068      3.2068        0.0000080767    0.1583387953E+02
        2        2        4      3.2068      3.2068      108.2167855761    0.1746276439E-06
        2        2        5      3.2068      3.2068      170.9358391588    0.1881164315E+03
        2        2        6      3.2068      3.2068      170.9358391588    0.1881164315E+03
     ------------------------------------------------------------------------------

     ik =       6 coord.:    0.0000000   0.8333333   0.0000000
      ibnd     jbnd     imode   enk[eV]    enk+q[eV]  omega(q)[meV]   |g|[meV]
     ------------------------------------------------------------------------------
        1        1        1     -8.3855     -8.3855        0.0000069045    0.1189004166E+03
        1        1        2     -8.3855     -8.3855        0.0000029632    0.1189004166E+03
        1        1        3     -8.3855     -8.3855        0.0000080767    0.1189004166E+03
        1        1        4     -8.3855     -8.3855      108.2167855761    0.3632569094E-06
        1        1        5     -8.3855     -8.3855      170.9358391588    0.1058682203E+02
        1        1        6     -8.3855     -8.3855      170.9358391588    0.1058682203E+02
        1        2        1     -8.3855      7.6170        0.0000069045    0.8908456256E+05
        1        2        2     -8.3855      7.6170        0.0000029632    0.8908456256E+05
        1        2        3     -8.3855      7.6170        0.0000080767    0.8908456256E+05
        1        2        4     -8.3855      7.6170      108.2167855761    0.7585865608E-06
        1        2        5     -8.3855      7.6170      170.9358391588    0.1859395337E+03
        1        2        6     -8.3855      7.6170      170.9358391588    0.1859395337E+03
        2        1        1      7.6170     -8.3855        0.0000069045    0.9144559667E+05
        2        1        2      7.6170     -8.3855        0.0000029632    0.9144559667E+05
        2        1        3      7.6170     -8.3855        0.0000080767    0.9144559667E+05
        2        1        4      7.6170     -8.3855      108.2167855761    0.8453553456E-06
        2        1        5      7.6170     -8.3855      170.9358391588    0.1905385607E+03
        2        1        6      7.6170     -8.3855      170.9358391588    0.1905385607E+03
        2        2        1      7.6170      7.6170        0.0000069045    0.2853240095E+01
        2        2        2      7.6170      7.6170        0.0000029632    0.2853240095E+01
        2        2        3      7.6170      7.6170        0.0000080767    0.2853240095E+01
        2        2        4      7.6170      7.6170      108.2167855761    0.7388782848E-06
        2        2        5      7.6170      7.6170      170.9358391588    0.7907215313E+02
        2        2        6      7.6170      7.6170      170.9358391588    0.7907215313E+02
     ------------------------------------------------------------------------------

     ik =       7 coord.:    0.1666667   0.0000000   0.0000000
      ibnd     jbnd     imode   enk[eV]    enk+q[eV]  omega(q)[meV]   |g|[meV]
     ------------------------------------------------------------------------------
        1        1        1     -8.3855     -8.3855        0.0000069045    0.1254890665E+03
        1        1        2     -8.3855     -8.3855        0.0000029632    0.1254890665E+03
        1        1        3     -8.3855     -8.3855        0.0000080767    0.1254890665E+03
        1        1        4     -8.3855     -8.3855      108.2167855761    0.7855732886E-06
        1        1        5     -8.3855     -8.3855      170.9358391588    0.1058682191E+02
        1        1        6     -8.3855     -8.3855      170.9358391588    0.1058682191E+02
        1        2        1     -8.3855      7.6170        0.0000069045    0.9402102388E+05
        1        2        2     -8.3855      7.6170        0.0000029632    0.9402102388E+05
        1        2        3     -8.3855      7.6170        0.0000080767    0.9402102388E+05
        1        2        4     -8.3855      7.6170      108.2167855761    0.4469870500E-06
        1        2        5     -8.3855      7.6170      170.9358391588    0.1859395337E+03
        1        2        6     -8.3855      7.6170      170.9358391588    0.1859395337E+03
        2        1        1      7.6170     -8.3855        0.0000069045    0.9651289044E+05
        2        1        2      7.6170     -8.3855        0.0000029632    0.9651289044E+05
        2        1        3      7.6170     -8.3855        0.0000080767    0.9651289044E+05
        2        1        4      7.6170     -8.3855      108.2167855761    0.4847219163E-06
        2        1        5      7.6170     -8.3855      170.9358391588    0.1905385607E+03
        2        1        6      7.6170     -8.3855      170.9358391588    0.1905385607E+03
        2        2        1      7.6170      7.6170        0.0000069045    0.3011346948E+01
        2        2        2      7.6170      7.6170        0.0000029632    0.3011346948E+01
        2        2        3      7.6170      7.6170        0.0000080767    0.3011346948E+01
        2        2        4      7.6170      7.6170      108.2167855761    0.9813505654E-06
        2        2        5      7.6170      7.6170      170.9358391588    0.7907215324E+02
        2        2        6      7.6170      7.6170      170.9358391588    0.7907215324E+02
     ------------------------------------------------------------------------------

     ik =       8 coord.:    0.1666667   0.1666667   0.0000000
      ibnd     jbnd     imode   enk[eV]    enk+q[eV]  omega(q)[meV]   |g|[meV]
     ------------------------------------------------------------------------------
        1        1        1     -6.9697     -6.9697        0.0000069045    0.1409470859E+03
        1        1        2     -6.9697     -6.9697        0.0000029632    0.1409470859E+03
        1        1        3     -6.9697     -6.9697        0.0000080767    0.1409470859E+03
        1        1        4     -6.9697     -6.9697      108.2167855761    0.2700180315E-06
        1        1        5     -6.9697     -6.9697      170.9358391588    0.3344404141E+02
        1        1        6     -6.9697     -6.9697      170.9358391588    0.3344404141E+02
        1        2        1     -6.9697      4.6459        0.0000069045    0.1417890171E+06
        1        2        2     -6.9697      4.6459        0.0000029632    0.1417890171E+06
        1        2        3     -6.9697      4.6459        0.0000080767    0.1417890171E+06
        1        2        4     -6.9697      4.6459      108.2167855761    0.1042738737E-05
        1        2        5     -6.9697      4.6459      170.9358391588    0.2451210813E+03
        1        2        6     -6.9697      4.6459      170.9358391588    0.2451210813E+03
        2        1        1      4.6459     -6.9697        0.0000069045    0.1445477042E+06
        2        1        2      4.6459     -6.9697        0.0000029632    0.1445477042E+06
        2        1        3      4.6459     -6.9697        0.0000080767    0.1445477042E+06
        2        1        4      4.6459     -6.9697      108.2167855761    0.1093872659E-05
        2        1        5      4.6459     -6.9697      170.9358391588    0.2494415652E+03
        2        1        6      4.6459     -6.9697      170.9358391588    0.2494415652E+03
        2        2        1      4.6459      4.6459        0.0000069045    0.6305670026E-02
        2        2        2      4.6459      4.6459        0.0000029632    0.6305670026E-02
        2        2        3      4.6459      4.6459        0.0000080767    0.6305670026E-02
        2        2        4      4.6459      4.6459      108.2167855761    0.8772169310E-06
        2        2        5      4.6459      4.6459      170.9358391588    0.1452696017E+03
        2        2        6      4.6459      4.6459      170.9358391588    0.1452696017E+03
     ------------------------------------------------------------------------------

     ik =       9 coord.:    0.1666667   0.3333333   0.0000000
      ibnd     jbnd     imode   enk[eV]    enk+q[eV]  omega(q)[meV]   |g|[meV]
     ------------------------------------------------------------------------------
        1        1        1     -4.3755     -4.3755        0.0000069045    0.3896516055E-02
        1        1        2     -4.3755     -4.3755        0.0000029632    0.3896516055E-02
        1        1        3     -4.3755     -4.3755        0.0000080767    0.3896516055E-02
        1        1        4     -4.3755     -4.3755      108.2167855761    0.4333052342E-06
        1        1        5     -4.3755     -4.3755      170.9358391588    0.1198643309E+03
        1        1        6     -4.3755     -4.3755      170.9358391588    0.1198643309E+03
        1        2        1     -4.3755      0.7947        0.0000069045    0.1918141633E+06
        1        2        2     -4.3755      0.7947        0.0000029632    0.1918141633E+06
        1        2        3     -4.3755      0.7947        0.0000080767    0.1918141633E+06
        1        2        4     -4.3755      0.7947      108.2167855761    0.1010016244E-05
        1        2        5     -4.3755      0.7947      170.9358391588    0.2314142948E+03
        1        2        6     -4.3755      0.7947      170.9358391588    0.2314142948E+03
        2        1        1      0.7947     -4.3755        0.0000069045    0.1933942265E+06
        2        1        2      0.7947     -4.3755        0.0000029632    0.1933942265E+06
        2        1        3      0.7947     -4.3755        0.0000080767    0.1933942265E+06
        2        1        4      0.7947     -4.3755      108.2167855761    0.1019548551E-05
        2        1        5      0.7947     -4.3755      170.9358391588    0.2332138032E+03
        2        1        6      0.7947     -4.3755      170.9358391588    0.2332138032E+03
        2        2        1      0.7947      0.7947        0.0000069045    0.3450592799E-02
        2        2        2      0.7947      0.7947        0.0000029632    0.3450592799E-02
        2        2        3      0.7947      0.7947        0.0000080767    0.3450592799E-02
        2        2        4      0.7947      0.7947      108.2167855761    0.3480360416E-07
        2        2        5      0.7947      0.7947      170.9358391588    0.2372087865E+03
        2        2        6      0.7947      0.7947      170.9358391588    0.2372087865E+03
     ------------------------------------------------------------------------------

     ik =      10 coord.:    0.1666667   0.5000000   0.0000000
      ibnd     jbnd     imode   enk[eV]    enk+q[eV]  omega(q)[meV]   |g|[meV]
     ------------------------------------------------------------------------------
        1        1        1     -4.3755     -4.3755        0.0000069045    0.1109308211E-02
        1        1        2     -4.3755     -4.3755        0.0000029632    0.1109308211E-02
        1        1        3     -4.3755     -4.3755        0.0000080767    0.1109308211E-02
        1        1        4     -4.3755     -4.3755      108.2167855761    0.6251577009E-06
        1        1        5     -4.3755     -4.3755      170.9358391588    0.1198643498E+03
        1        1        6     -4.3755     -4.3755      170.9358391588    0.1198643498E+03
        1        2        1     -4.3755      0.7947        0.0000069045    0.1906292299E+06
        1        2        2     -4.3755      0.7947        0.0000029632    0.1906292299E+06
        1        2        3     -4.3755      0.7947        0.0000080767    0.1906292299E+06
        1        2        4     -4.3755      0.7947      108.2167855761    0.2850314448E-06
        1        2        5     -4.3755      0.7947      170.9358391588    0.2314143274E+03
        1        2        6     -4.3755      0.7947      170.9358391588    0.2314143274E+03
        2        1        1      0.7947     -4.3755        0.0000069045    0.1921992748E+06
        2        1        2      0.7947     -4.3755        0.0000029632    0.1921992748E+06
        2        1        3      0.7947     -4.3755        0.0000080767    0.1921992748E+06
        2        1        4      0.7947     -4.3755      108.2167855761    0.2912410816E-06
        2        1        5      0.7947     -4.3755      170.9358391588    0.2332138360E+03
        2        1        6      0.7947     -4.3755      170.9358391588    0.2332138360E+03
        2        2        1      0.7947      0.7947        0.0000069045    0.1462927508E-02
        2        2        2      0.7947      0.7947        0.0000029632    0.1462927508E-02
        2        2        3      0.7947      0.7947        0.0000080767    0.1462927508E-02
        2        2        4      0.7947      0.7947      108.2167855761    0.1554288503E-06
        2        2        5      0.7947      0.7947      170.9358391588    0.2372088225E+03
        2        2        6      0.7947      0.7947      170.9358391588    0.2372088225E+03
     ------------------------------------------------------------------------------

     ik =      11 coord.:    0.1666667   0.6666667   0.0000000
      ibnd     jbnd     imode   enk[eV]    enk+q[eV]  omega(q)[meV]   |g|[meV]
     ------------------------------------------------------------------------------
        1        1        1     -6.9697     -6.9697        0.0000069045    0.1425362890E+03
        1        1        2     -6.9697     -6.9697        0.0000029632    0.1425362890E+03
        1        1        3     -6.9697     -6.9697        0.0000080767    0.1425362890E+03
        1        1        4     -6.9697     -6.9697      108.2167855761    0.7408013007E-06
        1        1        5     -6.9697     -6.9697      170.9358391588    0.3344404149E+02
        1        1        6     -6.9697     -6.9697      170.9358391588    0.3344404149E+02
        1        2        1     -6.9697      4.6459        0.0000069045    0.1403251423E+06
        1        2        2     -6.9697      4.6459        0.0000029632    0.1403251423E+06
        1        2        3     -6.9697      4.6459        0.0000080767    0.1403251423E+06
        1        2        4     -6.9697      4.6459      108.2167855761    0.3041828456E-06
        1        2        5     -6.9697      4.6459      170.9358391588    0.2451210809E+03
        1        2        6     -6.9697      4.6459      170.9358391588    0.2451210809E+03
        2        1        1      4.6459     -6.9697        0.0000069045    0.1430553478E+06
        2        1        2      4.6459     -6.9697        0.0000029632    0.1430553478E+06
        2        1        3      4.6459     -6.9697        0.0000080767    0.1430553478E+06
        2        1        4      4.6459     -6.9697      108.2167855761    0.3343012419E-06
        2        1        5      4.6459     -6.9697      170.9358391588    0.2494415648E+03
        2        1        6      4.6459     -6.9697      170.9358391588    0.2494415648E+03
        2        2        1      4.6459      4.6459        0.0000069045    0.2203680943E-02
        2        2        2      4.6459      4.6459        0.0000029632    0.2203680943E-02
        2        2        3      4.6459      4.6459        0.0000080767    0.2203680943E-02
        2        2        4      4.6459      4.6459      108.2167855761    0.4024267332E-07
        2        2        5      4.6459      4.6459      170.9358391588    0.1452696023E+03
        2        2        6      4.6459      4.6459      170.9358391588    0.1452696023E+03
     ------------------------------------------------------------------------------

     ik =      12 coord.:    0.1666667   0.8333333   0.0000000
      ibnd     jbnd     imode   enk[eV]    enk+q[eV]  omega(q)[meV]   |g|[meV]
     ------------------------------------------------------------------------------
        1        1        1     -8.3855     -8.3855        0.0000069045    0.1267981507E+03
        1        1        2     -8.3855     -8.3855        0.0000029632    0.1267981507E+03
        1        1        3     -8.3855     -8.3855        0.0000080767    0.1267981507E+03
        1        1        4     -8.3855     -8.3855      108.2167855761    0.1486812143E-06
        1        1        5     -8.3855     -8.3855      170.9358391588    0.1058681897E+02
        1        1        6     -8.3855     -8.3855      170.9358391588    0.1058681897E+02
        1        2        1     -8.3855      7.6170        0.0000069045    0.9500184252E+05
        1        2        2     -8.3855      7.6170        0.0000029632    0.9500184252E+05
        1        2        3     -8.3855      7.6170        0.0000080767    0.9500184252E+05
        1        2        4     -8.3855      7.6170      108.2167855761    0.1351325786E-05
        1        2        5     -8.3855      7.6170      170.9358391588    0.1859395076E+03
        1        2        6     -8.3855      7.6170      170.9358391588    0.1859395076E+03
        2        1        1      7.6170     -8.3855        0.0000069045    0.9751970407E+05
        2        1        2      7.6170     -8.3855        0.0000029632    0.9751970407E+05
        2        1        3      7.6170     -8.3855        0.0000080767    0.9751970407E+05
        2        1        4      7.6170     -8.3855      108.2167855761    0.1524958357E-05
        2        1        5      7.6170     -8.3855      170.9358391588    0.1905385339E+03
        2        1        6      7.6170     -8.3855      170.9358391588    0.1905385339E+03
        2        2        1      7.6170      7.6170        0.0000069045    0.3042770609E+01
        2        2        2      7.6170      7.6170        0.0000029632    0.3042770609E+01
        2        2        3      7.6170      7.6170        0.0000080767    0.3042770609E+01
        2        2        4      7.6170      7.6170      108.2167855761    0.2242190796E-06
        2        2        5      7.6170      7.6170      170.9358391588    0.7907214111E+02
        2        2        6      7.6170      7.6170      170.9358391588    0.7907214111E+02
     ------------------------------------------------------------------------------

     ik =      13 coord.:    0.3333333   0.0000000   0.0000000
      ibnd     jbnd     imode   enk[eV]    enk+q[eV]  omega(q)[meV]   |g|[meV]
     ------------------------------------------------------------------------------
        1        1        1     -6.2908     -6.2908        0.0000069045    0.1185521217E+03
        1        1        2     -6.2908     -6.2908        0.0000029632    0.1185521217E+03
        1        1        3     -6.2908     -6.2908        0.0000080767    0.1185521217E+03
        1        1        4     -6.2908     -6.2908      108.2167855761    0.1746704062E-06
        1        1        5     -6.2908     -6.2908      170.9358391588    0.5820636629E+02
        1        1        6     -6.2908     -6.2908      170.9358391588    0.5820636629E+02
        1        2        1     -6.2908      3.2068        0.0000069045    0.2373911796E+06
        1        2        2     -6.2908      3.2068        0.0000029632    0.2373911796E+06
        1        2        3     -6.2908      3.2068        0.0000080767    0.2373911796E+06
        1        2        4     -6.2908      3.2068      108.2167855761    0.1174955790E-06
        1        2        5     -6.2908      3.2068      170.9358391588    0.2481664115E+03
        1        2        6     -6.2908      3.2068      170.9358391588    0.2481664115E+03
        2        1        1      3.2068     -6.2908        0.0000069045    0.2409319048E+06
        2        1        2      3.2068     -6.2908        0.0000029632    0.2409319048E+06
        2        1        3      3.2068     -6.2908        0.0000080767    0.2409319048E+06
        2        1        4      3.2068     -6.2908      108.2167855761    0.1244323311E-06
        2        1        5      3.2068     -6.2908      170.9358391588    0.2516611144E+03
        2        1        6      3.2068     -6.2908      170.9358391588    0.2516611144E+03
        2        2        1      3.2068      3.2068        0.0000069045    0.1671128429E+02
        2        2        2      3.2068      3.2068        0.0000029632    0.1671128429E+02
        2        2        3      3.2068      3.2068        0.0000080767    0.1671128429E+02
        2        2        4      3.2068      3.2068      108.2167855761    0.8378521368E-07
        2        2        5      3.2068      3.2068      170.9358391588    0.1881164315E+03
        2        2        6      3.2068      3.2068      170.9358391588    0.1881164315E+03
     ------------------------------------------------------------------------------

     ik =      14 coord.:    0.3333333   0.1666667   0.0000000
      ibnd     jbnd     imode   enk[eV]    enk+q[eV]  omega(q)[meV]   |g|[meV]
     ------------------------------------------------------------------------------
        1        1        1     -4.3755     -4.3755        0.0000069045    0.2350748155E-02
        1        1        2     -4.3755     -4.3755        0.0000029632    0.2350748155E-02
        1        1        3     -4.3755     -4.3755        0.0000080767    0.2350748155E-02
        1        1        4     -4.3755     -4.3755      108.2167855761    0.1623155366E-05
        1        1        5     -4.3755     -4.3755      170.9358391588    0.1198643307E+03
        1        1        6     -4.3755     -4.3755      170.9358391588    0.1198643307E+03
        1        2        1     -4.3755      0.7947        0.0000069045    0.2038435212E+06
        1        2        2     -4.3755      0.7947        0.0000029632    0.2038435212E+06
        1        2        3     -4.3755      0.7947        0.0000080767    0.2038435212E+06
        1        2        4     -4.3755      0.7947      108.2167855761    0.4135328135E-06
        1        2        5     -4.3755      0.7947      170.9358391588    0.2314142951E+03
        1        2        6     -4.3755      0.7947      170.9358391588    0.2314142951E+03
        2        1        1      0.7947     -4.3755        0.0000069045    0.2055226639E+06
        2        1        2      0.7947     -4.3755        0.0000029632    0.2055226639E+06
        2        1        3      0.7947     -4.3755        0.0000080767    0.2055226639E+06
        2        1        4      0.7947     -4.3755      108.2167855761    0.4380279085E-06
        2        1        5      0.7947     -4.3755      170.9358391588    0.2332138035E+03
        2        1        6      0.7947     -4.3755      170.9358391588    0.2332138035E+03
        2        2        1      0.7947      0.7947        0.0000069045    0.4255487203E-02
        2        2        2      0.7947      0.7947        0.0000029632    0.4255487203E-02
        2        2        3      0.7947      0.7947        0.0000080767    0.4255487203E-02
        2        2        4      0.7947      0.7947      108.2167855761    0.3096362907E-06
        2        2        5      0.7947      0.7947      170.9358391588    0.2372087867E+03
        2        2        6      0.7947      0.7947      170.9358391588    0.2372087867E+03
     ------------------------------------------------------------------------------

     ik =      15 coord.:    0.3333333   0.3333333   0.0000000
      ibnd     jbnd     imode   enk[eV]    enk+q[eV]  omega(q)[meV]   |g|[meV]
     ------------------------------------------------------------------------------
        1        1        1     -1.7226     -1.7226        0.0000069045    0.3015623944E-03
        1        1        2     -1.7226     -1.7226        0.0000029632    0.3015623944E-03
        1        1        3     -1.7226     -1.7226        0.0000080767    0.3015623944E-03
        1        1        4     -1.7226     -1.7226      108.2167855761    0.9311718016E-07
        1        1        5     -1.7226     -1.7226      170.9358391588    0.2111479179E+03
        1        1        6     -1.7226     -1.7226      170.9358391588    0.2111479179E+03
        1        2        1     -1.7226     -1.7226        0.0000069045    0.3015623944E-03
        1        2        2     -1.7226     -1.7226        0.0000029632    0.3015623944E-03
        1        2        3     -1.7226     -1.7226        0.0000080767    0.3015623944E-03
        1        2        4     -1.7226     -1.7226      108.2167855761    0.9311718016E-07
        1        2        5     -1.7226     -1.7226      170.9358391588    0.2111479179E+03
        1        2        6     -1.7226     -1.7226      170.9358391588    0.2111479179E+03
        2        1        1     -1.7226     -1.7226        0.0000069045    0.3015623944E-03
        2        1        2     -1.7226     -1.7226        0.0000029632    0.3015623944E-03
        2        1        3     -1.7226     -1.7226        0.0000080767    0.3015623944E-03
        2        1        4     -1.7226     -1.7226      108.2167855761    0.9311718016E-07
        2        1        5     -1.7226     -1.7226      170.9358391588    0.2111479179E+03
        2        1        6     -1.7226     -1.7226      170.9358391588    0.2111479179E+03
        2        2        1     -1.7226     -1.7226        0.0000069045    0.3015623944E-03
        2        2        2     -1.7226     -1.7226        0.0000029632    0.3015623944E-03
        2        2        3     -1.7226     -1.7226        0.0000080767    0.3015623944E-03
        2        2        4     -1.7226     -1.7226      108.2167855761    0.9311718016E-07
        2        2        5     -1.7226     -1.7226      170.9358391588    0.2111479179E+03
        2        2        6     -1.7226     -1.7226      170.9358391588    0.2111479179E+03
     ------------------------------------------------------------------------------

     ik =      16 coord.:    0.3333333   0.5000000   0.0000000
      ibnd     jbnd     imode   enk[eV]    enk+q[eV]  omega(q)[meV]   |g|[meV]
     ------------------------------------------------------------------------------
        1        1        1     -4.3755     -4.3755        0.0000069045    0.5805625156E-02
        1        1        2     -4.3755     -4.3755        0.0000029632    0.5805625156E-02
        1        1        3     -4.3755     -4.3755        0.0000080767    0.5805625156E-02
        1        1        4     -4.3755     -4.3755      108.2167855761    0.5064383511E-06
        1        1        5     -4.3755     -4.3755      170.9358391588    0.1198643493E+03
        1        1        6     -4.3755     -4.3755      170.9358391588    0.1198643493E+03
        1        2        1     -4.3755      0.7947        0.0000069045    0.2051225101E+06
        1        2        2     -4.3755      0.7947        0.0000029632    0.2051225101E+06
        1        2        3     -4.3755      0.7947        0.0000080767    0.2051225101E+06
        1        2        4     -4.3755      0.7947      108.2167855761    0.6375204655E-06
        1        2        5     -4.3755      0.7947      170.9358391588    0.2314143277E+03
        1        2        6     -4.3755      0.7947      170.9358391588    0.2314143277E+03
        2        1        1      0.7947     -4.3755        0.0000069045    0.2068119469E+06
        2        1        2      0.7947     -4.3755        0.0000029632    0.2068119469E+06
        2        1        3      0.7947     -4.3755        0.0000080767    0.2068119469E+06
        2        1        4      0.7947     -4.3755      108.2167855761    0.7045988022E-06
        2        1        5      0.7947     -4.3755      170.9358391588    0.2332138364E+03
        2        1        6      0.7947     -4.3755      170.9358391588    0.2332138364E+03
        2        2        1      0.7947      0.7947        0.0000069045    0.1104080544E-02
        2        2        2      0.7947      0.7947        0.0000029632    0.1104080544E-02
        2        2        3      0.7947      0.7947        0.0000080767    0.1104080544E-02
        2        2        4      0.7947      0.7947      108.2167855761    0.7215165093E-07
        2        2        5      0.7947      0.7947      170.9358391588    0.2372088212E+03
        2        2        6      0.7947      0.7947      170.9358391588    0.2372088212E+03
     ------------------------------------------------------------------------------

     ik =      17 coord.:    0.3333333   0.6666667   0.0000000
      ibnd     jbnd     imode   enk[eV]    enk+q[eV]  omega(q)[meV]   |g|[meV]
     ------------------------------------------------------------------------------
        1        1        1     -6.2908     -6.2908        0.0000069045    0.1197888459E+03
        1        1        2     -6.2908     -6.2908        0.0000029632    0.1197888459E+03
        1        1        3     -6.2908     -6.2908        0.0000080767    0.1197888459E+03
        1        1        4     -6.2908     -6.2908      108.2167855761    0.2564072611E-06
        1        1        5     -6.2908     -6.2908      170.9358391588    0.5820635687E+02
        1        1        6     -6.2908     -6.2908      170.9358391588    0.5820635687E+02
        1        2        1     -6.2908      3.2068        0.0000069045    0.2398676188E+06
        1        2        2     -6.2908      3.2068        0.0000029632    0.2398676188E+06
        1        2        3     -6.2908      3.2068        0.0000080767    0.2398676188E+06
        1        2        4     -6.2908      3.2068      108.2167855761    0.1809533538E-06
        1        2        5     -6.2908      3.2068      170.9358391588    0.2481663760E+03
        1        2        6     -6.2908      3.2068      170.9358391588    0.2481663760E+03
        2        1        1      3.2068     -6.2908        0.0000069045    0.2434452804E+06
        2        1        2      3.2068     -6.2908        0.0000029632    0.2434452804E+06
        2        1        3      3.2068     -6.2908        0.0000080767    0.2434452804E+06
        2        1        4      3.2068     -6.2908      108.2167855761    0.1839537767E-06
        2        1        5      3.2068     -6.2908      170.9358391588    0.2516610784E+03
        2        1        6      3.2068     -6.2908      170.9358391588    0.2516610784E+03
        2        2        1      3.2068      3.2068        0.0000069045    0.1688561030E+02
        2        2        2      3.2068      3.2068        0.0000029632    0.1688561030E+02
        2        2        3      3.2068      3.2068        0.0000080767    0.1688561030E+02
        2        2        4      3.2068      3.2068      108.2167855761    0.4316325946E-07
        2        2        5      3.2068      3.2068      170.9358391588    0.1881164030E+03
        2        2        6      3.2068      3.2068      170.9358391588    0.1881164030E+03
     ------------------------------------------------------------------------------

     ik =      18 coord.:    0.3333333   0.8333333   0.0000000
      ibnd     jbnd     imode   enk[eV]    enk+q[eV]  omega(q)[meV]   |g|[meV]
     ------------------------------------------------------------------------------
        1        1        1     -6.9697     -6.9697        0.0000069045    0.1500433185E+03
        1        1        2     -6.9697     -6.9697        0.0000029632    0.1500433185E+03
        1        1        3     -6.9697     -6.9697        0.0000080767    0.1500433185E+03
        1        1        4     -6.9697     -6.9697      108.2167855761    0.1279622793E-05
        1        1        5     -6.9697     -6.9697      170.9358391588    0.3344404162E+02
        1        1        6     -6.9697     -6.9697      170.9358391588    0.3344404162E+02
        1        2        1     -6.9697      4.6459        0.0000069045    0.1329575387E+06
        1        2        2     -6.9697      4.6459        0.0000029632    0.1329575387E+06
        1        2        3     -6.9697      4.6459        0.0000080767    0.1329575387E+06
        1        2        4     -6.9697      4.6459      108.2167855761    0.6082463373E-06
        1        2        5     -6.9697      4.6459      170.9358391588    0.2451210808E+03
        1        2        6     -6.9697      4.6459      170.9358391588    0.2451210808E+03
        2        1        1      4.6459     -6.9697        0.0000069045    0.1355443981E+06
        2        1        2      4.6459     -6.9697        0.0000029632    0.1355443981E+06
        2        1        3      4.6459     -6.9697        0.0000080767    0.1355443981E+06
        2        1        4      4.6459     -6.9697      108.2167855761    0.6385527165E-06
        2        1        5      4.6459     -6.9697      170.9358391588    0.2494415647E+03
        2        1        6      4.6459     -6.9697      170.9358391588    0.2494415647E+03
        2        2        1      4.6459      4.6459        0.0000069045    0.3946730102E-02
        2        2        2      4.6459      4.6459        0.0000029632    0.3946730102E-02
        2        2        3      4.6459      4.6459        0.0000080767    0.3946730102E-02
        2        2        4      4.6459      4.6459      108.2167855761    0.1512455614E-05
        2        2        5      4.6459      4.6459      170.9358391588    0.1452696023E+03
        2        2        6      4.6459      4.6459      170.9358391588    0.1452696023E+03
     ------------------------------------------------------------------------------

     ik =      19 coord.:    0.5000000   0.0000000   0.0000000
      ibnd     jbnd     imode   enk[eV]    enk+q[eV]  omega(q)[meV]   |g|[meV]
     ------------------------------------------------------------------------------
        1        1        1     -4.0822     -4.0822        0.0000069045    0.2799651096E-01
        1        1        2     -4.0822     -4.0822        0.0000029632    0.2799651096E-01
        1        1        3     -4.0822     -4.0822        0.0000080767    0.2799651096E-01
        1        1        4     -4.0822     -4.0822      108.2167855761    0.4718021727E-05
        1        1        5     -4.0822     -4.0822      170.9358391588    0.2236972237E+03
        1        1        6     -4.0822     -4.0822      170.9358391588    0.2236972237E+03
        1        2        1     -4.0822     -0.0431        0.0000069045    0.2949146466E+06
        1        2        2     -4.0822     -0.0431        0.0000029632    0.2949146466E+06
        1        2        3     -4.0822     -0.0431        0.0000080767    0.2949146466E+06
        1        2        4     -4.0822     -0.0431      108.2167855761    0.4126715605E-05
        1        2        5     -4.0822     -0.0431      170.9358391588    0.1769117205E-05
        1        2        6     -4.0822     -0.0431      170.9358391588    0.1769117205E-05
        2        1        1     -0.0431     -4.0822        0.0000069045    0.2967833422E+06
        2        1        2     -0.0431     -4.0822        0.0000029632    0.2967833422E+06
        2        1        3     -0.0431     -4.0822        0.0000080767    0.2967833422E+06
        2        1        4     -0.0431     -4.0822      108.2167855761    0.3944659453E-05
        2        1        5     -0.0431     -4.0822      170.9358391588    0.1801427656E-05
        2        1        6     -0.0431     -4.0822      170.9358391588    0.1801427656E-05
        2        2        1     -0.0431     -0.0431        0.0000069045    0.6464509495E-03
        2        2        2     -0.0431     -0.0431        0.0000029632    0.6464509495E-03
        2        2        3     -0.0431     -0.0431        0.0000080767    0.6464509495E-03
        2        2        4     -0.0431     -0.0431      108.2167855761    0.7327822218E-06
        2        2        5     -0.0431     -0.0431      170.9358391588    0.3629140482E+03
        2        2        6     -0.0431     -0.0431      170.9358391588    0.3629140482E+03
     ------------------------------------------------------------------------------

     ik =      20 coord.:    0.5000000   0.1666667   0.0000000
      ibnd     jbnd     imode   enk[eV]    enk+q[eV]  omega(q)[meV]   |g|[meV]
     ------------------------------------------------------------------------------
        1        1        1     -4.3755     -4.3755        0.0000069045    0.3770788456E-02
        1        1        2     -4.3755     -4.3755        0.0000029632    0.3770788456E-02
        1        1        3     -4.3755     -4.3755        0.0000080767    0.3770788456E-02
        1        1        4     -4.3755     -4.3755      108.2167855761    0.5224404003E-06
        1        1        5     -4.3755     -4.3755      170.9358391588    0.1198643496E+03
        1        1        6     -4.3755     -4.3755      170.9358391588    0.1198643496E+03
        1        2        1     -4.3755      0.7947        0.0000069045    0.1972044125E+06
        1        2        2     -4.3755      0.7947        0.0000029632    0.1972044125E+06
        1        2        3     -4.3755      0.7947        0.0000080767    0.1972044125E+06
        1        2        4     -4.3755      0.7947      108.2167855761    0.9158765647E-06
        1        2        5     -4.3755      0.7947      170.9358391588    0.2314143270E+03
        1        2        6     -4.3755      0.7947      170.9358391588    0.2314143270E+03
        2        1        1      0.7947     -4.3755        0.0000069045    0.1988274031E+06
        2        1        2      0.7947     -4.3755        0.0000029632    0.1988274031E+06
        2        1        3      0.7947     -4.3755        0.0000080767    0.1988274031E+06
        2        1        4      0.7947     -4.3755      108.2167855761    0.9340434466E-06
        2        1        5      0.7947     -4.3755      170.9358391588    0.2332138357E+03
        2        1        6      0.7947     -4.3755      170.9358391588    0.2332138357E+03
        2        2        1      0.7947      0.7947        0.0000069045    0.2511833045E-02
        2        2        2      0.7947      0.7947        0.0000029632    0.2511833045E-02
        2        2        3      0.7947      0.7947        0.0000080767    0.2511833045E-02
        2        2        4      0.7947      0.7947      108.2167855761    0.8599043654E-07
        2        2        5      0.7947      0.7947      170.9358391588    0.2372088221E+03
        2        2        6      0.7947      0.7947      170.9358391588    0.2372088221E+03
     ------------------------------------------------------------------------------

     ik =      21 coord.:    0.5000000   0.3333333   0.0000000
      ibnd     jbnd     imode   enk[eV]    enk+q[eV]  omega(q)[meV]   |g|[meV]
     ------------------------------------------------------------------------------
        1        1        1     -4.3755     -4.3755        0.0000069045    0.1668351653E-02
        1        1        2     -4.3755     -4.3755        0.0000029632    0.1668351653E-02
        1        1        3     -4.3755     -4.3755        0.0000080767    0.1668351653E-02
        1        1        4     -4.3755     -4.3755      108.2167855761    0.8381295474E-07
        1        1        5     -4.3755     -4.3755      170.9358391588    0.1198643494E+03
        1        1        6     -4.3755     -4.3755      170.9358391588    0.1198643494E+03
        1        2        1     -4.3755      0.7947        0.0000069045    0.1996642490E+06
        1        2        2     -4.3755      0.7947        0.0000029632    0.1996642490E+06
        1        2        3     -4.3755      0.7947        0.0000080767    0.1996642490E+06
        1        2        4     -4.3755      0.7947      108.2167855761    0.6408256935E-06
        1        2        5     -4.3755      0.7947      170.9358391588    0.2314143282E+03
        1        2        6     -4.3755      0.7947      170.9358391588    0.2314143282E+03
        2        1        1      0.7947     -4.3755        0.0000069045    0.2013075180E+06
        2        1        2      0.7947     -4.3755        0.0000029632    0.2013075180E+06
        2        1        3      0.7947     -4.3755        0.0000080767    0.2013075180E+06
        2        1        4      0.7947     -4.3755      108.2167855761    0.6488136579E-06
        2        1        5      0.7947     -4.3755      170.9358391588    0.2332138368E+03
        2        1        6      0.7947     -4.3755      170.9358391588    0.2332138368E+03
        2        2        1      0.7947      0.7947        0.0000069045    0.2595548887E-02
        2        2        2      0.7947      0.7947        0.0000029632    0.2595548887E-02
        2        2        3      0.7947      0.7947        0.0000080767    0.2595548887E-02
        2        2        4      0.7947      0.7947      108.2167855761    0.1288682249E-06
        2        2        5      0.7947      0.7947      170.9358391588    0.2372088210E+03
        2        2        6      0.7947      0.7947      170.9358391588    0.2372088210E+03
     ------------------------------------------------------------------------------

     ik =      22 coord.:    0.5000000   0.5000000   0.0000000
      ibnd     jbnd     imode   enk[eV]    enk+q[eV]  omega(q)[meV]   |g|[meV]
     ------------------------------------------------------------------------------
        1        1        1     -4.0822     -4.0822        0.0000069045    0.1596864623E-01
        1        1        2     -4.0822     -4.0822        0.0000029632    0.1596864623E-01
        1        1        3     -4.0822     -4.0822        0.0000080767    0.1596864623E-01
        1        1        4     -4.0822     -4.0822      108.2167855761    0.3591836919E-05
        1        1        5     -4.0822     -4.0822      170.9358391588    0.2236972258E+03
        1        1        6     -4.0822     -4.0822      170.9358391588    0.2236972258E+03
        1        2        1     -4.0822     -0.0431        0.0000069045    0.2979912050E+06
        1        2        2     -4.0822     -0.0431        0.0000029632    0.2979912050E+06
        1        2        3     -4.0822     -0.0431        0.0000080767    0.2979912050E+06
        1        2        4     -4.0822     -0.0431      108.2167855761    0.2077753682E-05
        1        2        5     -4.0822     -0.0431      170.9358391588    0.8616976200E-06
        1        2        6     -4.0822     -0.0431      170.9358391588    0.8616976200E-06
        2        1        1     -0.0431     -4.0822        0.0000069045    0.2998793951E+06
        2        1        2     -0.0431     -4.0822        0.0000029632    0.2998793951E+06
        2        1        3     -0.0431     -4.0822        0.0000080767    0.2998793951E+06
        2        1        4     -0.0431     -4.0822      108.2167855761    0.2166273872E-05
        2        1        5     -0.0431     -4.0822      170.9358391588    0.8747738861E-06
        2        1        6     -0.0431     -4.0822      170.9358391588    0.8747738861E-06
        2        2        1     -0.0431     -0.0431        0.0000069045    0.7611904615E-02
        2        2        2     -0.0431     -0.0431        0.0000029632    0.7611904615E-02
        2        2        3     -0.0431     -0.0431        0.0000080767    0.7611904615E-02
        2        2        4     -0.0431     -0.0431      108.2167855761    0.2457334727E-05
        2        2        5     -0.0431     -0.0431      170.9358391588    0.3629140475E+03
        2        2        6     -0.0431     -0.0431      170.9358391588    0.3629140475E+03
     ------------------------------------------------------------------------------

     ik =      23 coord.:    0.5000000   0.6666667   0.0000000
      ibnd     jbnd     imode   enk[eV]    enk+q[eV]  omega(q)[meV]   |g|[meV]
     ------------------------------------------------------------------------------
        1        1        1     -4.3755     -4.3755        0.0000069045    0.1273074935E-02
        1        1        2     -4.3755     -4.3755        0.0000029632    0.1273074935E-02
        1        1        3     -4.3755     -4.3755        0.0000080767    0.1273074935E-02
        1        1        4     -4.3755     -4.3755      108.2167855761    0.1497608938E-06
        1        1        5     -4.3755     -4.3755      170.9358391588    0.1198643492E+03
        1        1        6     -4.3755     -4.3755      170.9358391588    0.1198643492E+03
        1        2        1     -4.3755      0.7947        0.0000069045    0.1996642489E+06
        1        2        2     -4.3755      0.7947        0.0000029632    0.1996642489E+06
        1        2        3     -4.3755      0.7947        0.0000080767    0.1996642489E+06
        1        2        4     -4.3755      0.7947      108.2167855761    0.1681976256E-06
        1        2        5     -4.3755      0.7947      170.9358391588    0.2314143279E+03
        1        2        6     -4.3755      0.7947      170.9358391588    0.2314143279E+03
        2        1        1      0.7947     -4.3755        0.0000069045    0.2013075180E+06
        2        1        2      0.7947     -4.3755        0.0000029632    0.2013075180E+06
        2        1        3      0.7947     -4.3755        0.0000080767    0.2013075180E+06
        2        1        4      0.7947     -4.3755      108.2167855761    0.1495899573E-06
        2        1        5      0.7947     -4.3755      170.9358391588    0.2332138366E+03
        2        1        6      0.7947     -4.3755      170.9358391588    0.2332138366E+03
        2        2        1      0.7947      0.7947        0.0000069045    0.2302314750E-02
        2        2        2      0.7947      0.7947        0.0000029632    0.2302314750E-02
        2        2        3      0.7947      0.7947        0.0000080767    0.2302314750E-02
        2        2        4      0.7947      0.7947      108.2167855761    0.2155688151E-06
        2        2        5      0.7947      0.7947      170.9358391588    0.2372088209E+03
        2        2        6      0.7947      0.7947      170.9358391588    0.2372088209E+03
     ------------------------------------------------------------------------------

     ik =      24 coord.:    0.5000000   0.8333333   0.0000000
      ibnd     jbnd     imode   enk[eV]    enk+q[eV]  omega(q)[meV]   |g|[meV]
     ------------------------------------------------------------------------------
        1        1        1     -4.3755     -4.3755        0.0000069045    0.5840117369E-03
        1        1        2     -4.3755     -4.3755        0.0000029632    0.5840117369E-03
        1        1        3     -4.3755     -4.3755        0.0000080767    0.5840117369E-03
        1        1        4     -4.3755     -4.3755      108.2167855761    0.1474793129E-05
        1        1        5     -4.3755     -4.3755      170.9358391588    0.1198643502E+03
        1        1        6     -4.3755     -4.3755      170.9358391588    0.1198643502E+03
        1        2        1     -4.3755      0.7947        0.0000069045    0.1972044107E+06
        1        2        2     -4.3755      0.7947        0.0000029632    0.1972044107E+06
        1        2        3     -4.3755      0.7947        0.0000080767    0.1972044107E+06
        1        2        4     -4.3755      0.7947      108.2167855761    0.1734512070E-07
        1        2        5     -4.3755      0.7947      170.9358391588    0.2314143274E+03
        1        2        6     -4.3755      0.7947      170.9358391588    0.2314143274E+03
        2        1        1      0.7947     -4.3755        0.0000069045    0.1988274013E+06
        2        1        2      0.7947     -4.3755        0.0000029632    0.1988274013E+06
        2        1        3      0.7947     -4.3755        0.0000080767    0.1988274013E+06
        2        1        4      0.7947     -4.3755      108.2167855761    0.4676428089E-07
        2        1        5      0.7947     -4.3755      170.9358391588    0.2332138360E+03
        2        1        6      0.7947     -4.3755      170.9358391588    0.2332138360E+03
        2        2        1      0.7947      0.7947        0.0000069045    0.5528101667E-03
        2        2        2      0.7947      0.7947        0.0000029632    0.5528101667E-03
        2        2        3      0.7947      0.7947        0.0000080767    0.5528101667E-03
        2        2        4      0.7947      0.7947      108.2167855761    0.6761280157E-06
        2        2        5      0.7947      0.7947      170.9358391588    0.2372088220E+03
        2        2        6      0.7947      0.7947      170.9358391588    0.2372088220E+03
     ------------------------------------------------------------------------------

     ik =      25 coord.:    0.6666667   0.0000000   0.0000000
      ibnd     jbnd     imode   enk[eV]    enk+q[eV]  omega(q)[meV]   |g|[meV]
     ------------------------------------------------------------------------------
        1        1        1     -6.2908     -6.2908        0.0000069045    0.1185521212E+03
        1        1        2     -6.2908     -6.2908        0.0000029632    0.1185521212E+03
        1        1        3     -6.2908     -6.2908        0.0000080767    0.1185521212E+03
        1        1        4     -6.2908     -6.2908      108.2167855761    0.2012678463E-06
        1        1        5     -6.2908     -6.2908      170.9358391588    0.5820636624E+02
        1        1        6     -6.2908     -6.2908      170.9358391588    0.5820636624E+02
        1        2        1     -6.2908      3.2068        0.0000069045    0.2373911797E+06
        1        2        2     -6.2908      3.2068        0.0000029632    0.2373911797E+06
        1        2        3     -6.2908      3.2068        0.0000080767    0.2373911797E+06
        1        2        4     -6.2908      3.2068      108.2167855761    0.6772220567E-07
        1        2        5     -6.2908      3.2068      170.9358391588    0.2481664115E+03
        1        2        6     -6.2908      3.2068      170.9358391588    0.2481664115E+03
        2        1        1      3.2068     -6.2908        0.0000069045    0.2409319049E+06
        2        1        2      3.2068     -6.2908        0.0000029632    0.2409319049E+06
        2        1        3      3.2068     -6.2908        0.0000080767    0.2409319049E+06
        2        1        4      3.2068     -6.2908      108.2167855761    0.7392330058E-07
        2        1        5      3.2068     -6.2908      170.9358391588    0.2516611144E+03
        2        1        6      3.2068     -6.2908      170.9358391588    0.2516611144E+03
        2        2        1      3.2068      3.2068        0.0000069045    0.1671128419E+02
        2        2        2      3.2068      3.2068        0.0000029632    0.1671128419E+02
        2        2        3      3.2068      3.2068        0.0000080767    0.1671128419E+02
        2        2        4      3.2068      3.2068      108.2167855761    0.1796005278E-06
        2        2        5      3.2068      3.2068      170.9358391588    0.1881164315E+03
        2        2        6      3.2068      3.2068      170.9358391588    0.1881164315E+03
     ------------------------------------------------------------------------------

     ik =      26 coord.:    0.6666667   0.1666667   0.0000000
      ibnd     jbnd     imode   enk[eV]    enk+q[eV]  omega(q)[meV]   |g|[meV]
     ------------------------------------------------------------------------------
        1        1        1     -6.9697     -6.9697        0.0000069045    0.1500433193E+03
        1        1        2     -6.9697     -6.9697        0.0000029632    0.1500433193E+03
        1        1        3     -6.9697     -6.9697        0.0000080767    0.1500433193E+03
        1        1        4     -6.9697     -6.9697      108.2167855761    0.2838536372E-06
        1        1        5     -6.9697     -6.9697      170.9358391588    0.3344404149E+02
        1        1        6     -6.9697     -6.9697      170.9358391588    0.3344404149E+02
        1        2        1     -6.9697      4.6459        0.0000069045    0.1329575398E+06
        1        2        2     -6.9697      4.6459        0.0000029632    0.1329575398E+06
        1        2        3     -6.9697      4.6459        0.0000080767    0.1329575398E+06
        1        2        4     -6.9697      4.6459      108.2167855761    0.7095090266E-06
        1        2        5     -6.9697      4.6459      170.9358391588    0.2451210811E+03
        1        2        6     -6.9697      4.6459      170.9358391588    0.2451210811E+03
        2        1        1      4.6459     -6.9697        0.0000069045    0.1355443992E+06
        2        1        2      4.6459     -6.9697        0.0000029632    0.1355443992E+06
        2        1        3      4.6459     -6.9697        0.0000080767    0.1355443992E+06
        2        1        4      4.6459     -6.9697      108.2167855761    0.8199843366E-06
        2        1        5      4.6459     -6.9697      170.9358391588    0.2494415650E+03
        2        1        6      4.6459     -6.9697      170.9358391588    0.2494415650E+03
        2        2        1      4.6459      4.6459        0.0000069045    0.6666102163E-02
        2        2        2      4.6459      4.6459        0.0000029632    0.6666102163E-02
        2        2        3      4.6459      4.6459        0.0000080767    0.6666102163E-02
        2        2        4      4.6459      4.6459      108.2167855761    0.9305563202E-07
        2        2        5      4.6459      4.6459      170.9358391588    0.1452696026E+03
        2        2        6      4.6459      4.6459      170.9358391588    0.1452696026E+03
     ------------------------------------------------------------------------------

     ik =      27 coord.:    0.6666667   0.3333333   0.0000000
      ibnd     jbnd     imode   enk[eV]    enk+q[eV]  omega(q)[meV]   |g|[meV]
     ------------------------------------------------------------------------------
        1        1        1     -6.2908     -6.2908        0.0000069045    0.1197888460E+03
        1        1        2     -6.2908     -6.2908        0.0000029632    0.1197888460E+03
        1        1        3     -6.2908     -6.2908        0.0000080767    0.1197888460E+03
        1        1        4     -6.2908     -6.2908      108.2167855761    0.1250734744E-06
        1        1        5     -6.2908     -6.2908      170.9358391588    0.5820635684E+02
        1        1        6     -6.2908     -6.2908      170.9358391588    0.5820635684E+02
        1        2        1     -6.2908      3.2068        0.0000069045    0.2398676189E+06
        1        2        2     -6.2908      3.2068        0.0000029632    0.2398676189E+06
        1        2        3     -6.2908      3.2068        0.0000080767    0.2398676189E+06
        1        2        4     -6.2908      3.2068      108.2167855761    0.5367475666E-07
        1        2        5     -6.2908      3.2068      170.9358391588    0.2481663760E+03
        1        2        6     -6.2908      3.2068      170.9358391588    0.2481663760E+03
        2        1        1      3.2068     -6.2908        0.0000069045    0.2434452805E+06
        2        1        2      3.2068     -6.2908        0.0000029632    0.2434452805E+06
        2        1        3      3.2068     -6.2908        0.0000080767    0.2434452805E+06
        2        1        4      3.2068     -6.2908      108.2167855761    0.6985427003E-07
        2        1        5      3.2068     -6.2908      170.9358391588    0.2516610784E+03
        2        1        6      3.2068     -6.2908      170.9358391588    0.2516610784E+03
        2        2        1      3.2068      3.2068        0.0000069045    0.1688561008E+02
        2        2        2      3.2068      3.2068        0.0000029632    0.1688561008E+02
        2        2        3      3.2068      3.2068        0.0000080767    0.1688561008E+02
        2        2        4      3.2068      3.2068      108.2167855761    0.8672819789E-07
        2        2        5      3.2068      3.2068      170.9358391588    0.1881164031E+03
        2        2        6      3.2068      3.2068      170.9358391588    0.1881164031E+03
     ------------------------------------------------------------------------------

     ik =      28 coord.:    0.6666667   0.5000000   0.0000000
      ibnd     jbnd     imode   enk[eV]    enk+q[eV]  omega(q)[meV]   |g|[meV]
     ------------------------------------------------------------------------------
        1        1        1     -4.3755     -4.3755        0.0000069045    0.2797056869E-02
        1        1        2     -4.3755     -4.3755        0.0000029632    0.2797056869E-02
        1        1        3     -4.3755     -4.3755        0.0000080767    0.2797056869E-02
        1        1        4     -4.3755     -4.3755      108.2167855761    0.4057056031E-06
        1        1        5     -4.3755     -4.3755      170.9358391588    0.1198643498E+03
        1        1        6     -4.3755     -4.3755      170.9358391588    0.1198643498E+03
        1        2        1     -4.3755      0.7947        0.0000069045    0.2051225085E+06
        1        2        2     -4.3755      0.7947        0.0000029632    0.2051225085E+06
        1        2        3     -4.3755      0.7947        0.0000080767    0.2051225085E+06
        1        2        4     -4.3755      0.7947      108.2167855761    0.5031203860E-06
        1        2        5     -4.3755      0.7947      170.9358391588    0.2314143277E+03
        1        2        6     -4.3755      0.7947      170.9358391588    0.2314143277E+03
        2        1        1      0.7947     -4.3755        0.0000069045    0.2068119452E+06
        2        1        2      0.7947     -4.3755        0.0000029632    0.2068119452E+06
        2        1        3      0.7947     -4.3755        0.0000080767    0.2068119452E+06
        2        1        4      0.7947     -4.3755      108.2167855761    0.5304989424E-06
        2        1        5      0.7947     -4.3755      170.9358391588    0.2332138364E+03
        2        1        6      0.7947     -4.3755      170.9358391588    0.2332138364E+03
        2        2        1      0.7947      0.7947        0.0000069045    0.1058719980E-02
        2        2        2      0.7947      0.7947        0.0000029632    0.1058719980E-02
        2        2        3      0.7947      0.7947        0.0000080767    0.1058719980E-02
        2        2        4      0.7947      0.7947      108.2167855761    0.5370851593E-07
        2        2        5      0.7947      0.7947      170.9358391588    0.2372088206E+03
        2        2        6      0.7947      0.7947      170.9358391588    0.2372088206E+03
     ------------------------------------------------------------------------------

     ik =      29 coord.:    0.6666667   0.6666667   0.0000000
      ibnd     jbnd     imode   enk[eV]    enk+q[eV]  omega(q)[meV]   |g|[meV]
     ------------------------------------------------------------------------------
        1        1        1     -1.7226     -1.7226        0.0000069045    0.2771346141E-03
        1        1        2     -1.7226     -1.7226        0.0000029632    0.2771346141E-03
        1        1        3     -1.7226     -1.7226        0.0000080767    0.2771346141E-03
        1        1        4     -1.7226     -1.7226      108.2167855761    0.6404197483E-07
        1        1        5     -1.7226     -1.7226      170.9358391588    0.2111479179E+03
        1        1        6     -1.7226     -1.7226      170.9358391588    0.2111479179E+03
        1        2        1     -1.7226     -1.7226        0.0000069045    0.2771346141E-03
        1        2        2     -1.7226     -1.7226        0.0000029632    0.2771346141E-03
        1        2        3     -1.7226     -1.7226        0.0000080767    0.2771346141E-03
        1        2        4     -1.7226     -1.7226      108.2167855761    0.6404197483E-07
        1        2        5     -1.7226     -1.7226      170.9358391588    0.2111479179E+03
        1        2        6     -1.7226     -1.7226      170.9358391588    0.2111479179E+03
        2        1        1     -1.7226     -1.7226        0.0000069045    0.2771346141E-03
        2        1        2     -1.7226     -1.7226        0.0000029632    0.2771346141E-03
        2        1        3     -1.7226     -1.7226        0.0000080767    0.2771346141E-03
        2        1        4     -1.7226     -1.7226      108.2167855761    0.6404197483E-07
        2        1        5     -1.7226     -1.7226      170.9358391588    0.2111479179E+03
        2        1        6     -1.7226     -1.7226      170.9358391588    0.2111479179E+03
[...]
   10    1    2 -4.3755  0.7947   -0.353646E-04   -0.168499E+00    0.269795E-02   -0.621440E+00   -0.570422E-11   -0.108519E-10
   10    2    1  0.7947 -4.3755    0.122352E-02    0.171056E+00    0.935566E-03    0.627678E+00   -0.570422E-11    0.108521E-10
   10    2    2  0.7947  0.7947   -0.221229E+00   -0.166533E-15    0.981928E+00   -0.277556E-16    0.000000E+00    0.000000E+00

     ik =      11 coord.:   0.1666667   0.6666667   0.0000000
   ik ibnd jbnd Enk[eV] Emk[eV]         Re(v_x)         Im(v_x)         Re(v_y)         Im(v_y)         Re(v_z)         Im(v_z)
   11    1    1 -6.9697 -6.9697    0.341549E+00   -0.388578E-15   -0.595085E+00    0.111022E-15    0.000000E+00    0.000000E+00
   11    1    2 -6.9697  4.6459   -0.477202E-07   -0.181087E+00    0.694113E-02   -0.862383E-01    0.112333E-10    0.523275E-11
   11    2    1  4.6459 -6.9697    0.466166E-07    0.194907E+00   -0.855877E-03    0.844062E-01    0.112341E-10   -0.523294E-11
   11    2    2  4.6459  4.6459   -0.606642E+00    0.444089E-15    0.105424E+01   -0.111022E-15    0.000000E+00    0.000000E+00

     ik =      12 coord.:   0.1666667   0.8333333   0.0000000
   ik ibnd jbnd Enk[eV] Emk[eV]         Re(v_x)         Im(v_x)         Re(v_y)         Im(v_y)         Re(v_z)         Im(v_z)
   12    1    1 -8.3855 -8.3855    0.346381E+00   -0.222045E-15   -0.199983E+00   -0.277556E-16    0.000000E+00    0.000000E+00
   12    1    2 -8.3855  7.6170    0.334531E-02   -0.944975E-01    0.579426E-02    0.545561E-01   -0.731351E-11    0.870810E-11
   12    2    1  7.6170 -8.3855   -0.138359E-02    0.119112E+00   -0.239646E-02   -0.687671E-01   -0.731351E-11   -0.870789E-11
   12    2    2  7.6170  7.6170   -0.912682E+00   -0.111022E-15    0.526937E+00    0.499600E-15    0.000000E+00    0.000000E+00

     ik =      13 coord.:   0.3333333   0.0000000   0.0000000
   ik ibnd jbnd Enk[eV] Emk[eV]         Re(v_x)         Im(v_x)         Re(v_y)         Im(v_y)         Re(v_z)         Im(v_z)
   13    1    1 -6.2908 -6.2908    0.659692E+00    0.277556E-15    0.381213E+00    0.000000E+00    0.000000E+00    0.000000E+00
   13    1    2 -6.2908  3.2068    0.395668E-02    0.333451E+00   -0.316385E-04    0.206345E+00    0.423910E-11   -0.426477E-11
   13    2    1  3.2068 -6.2908   -0.106573E-02   -0.332567E+00    0.134509E-03   -0.213839E+00    0.423910E-11    0.426467E-11
   13    2    2  3.2068  3.2068   -0.113607E+01    0.000000E+00   -0.656253E+00    0.159595E-15    0.000000E+00    0.000000E+00

     ik =      14 coord.:   0.3333333   0.1666667   0.0000000
   ik ibnd jbnd Enk[eV] Emk[eV]         Re(v_x)         Im(v_x)         Re(v_y)         Im(v_y)         Re(v_z)         Im(v_z)
   14    1    1 -4.3755 -4.3755    0.502038E+00    0.138778E-16    0.691609E+00   -0.124900E-15    0.000000E+00    0.000000E+00
   14    1    2 -4.3755  0.7947    0.235416E-02    0.615955E+00   -0.152489E-02    0.178904E+00    0.106506E-10    0.194675E-10
   14    2    1  0.7947 -4.3755    0.198472E-03   -0.614539E+00   -0.149668E-02   -0.186755E+00    0.106506E-10   -0.194673E-10
   14    2    2  0.7947  0.7947   -0.739549E+00    0.228983E-15   -0.684816E+00    0.111022E-15    0.000000E+00    0.000000E+00

     ik =      15 coord.:   0.3333333   0.3333333   0.0000000
   ik ibnd jbnd Enk[eV] Emk[eV]         Re(v_x)         Im(v_x)         Re(v_y)         Im(v_y)         Re(v_z)         Im(v_z)
   15    1    1 -1.7226 -1.7226   -0.757112E+00    0.000000E+00   -0.758692E+00    0.000000E+00   -0.146376E-20    0.000000E+00
   15    1    2 -1.7226 -1.7226    0.000000E+00    0.000000E+00    0.000000E+00    0.000000E+00    0.000000E+00    0.000000E+00
   15    2    1 -1.7226 -1.7226    0.000000E+00    0.000000E+00    0.000000E+00    0.000000E+00    0.000000E+00    0.000000E+00
   15    2    2 -1.7226 -1.7226    0.757112E+00    0.000000E+00    0.758692E+00    0.000000E+00    0.146376E-20    0.000000E+00

     ik =      16 coord.:   0.3333333   0.5000000   0.0000000
   ik ibnd jbnd Enk[eV] Emk[eV]         Re(v_x)         Im(v_x)         Re(v_y)         Im(v_y)         Re(v_z)         Im(v_z)
   16    1    1 -4.3755 -4.3755    0.500678E+00    0.000000E+00   -0.690516E+00   -0.111022E-15    0.000000E+00    0.000000E+00
   16    1    2 -4.3755  0.7947    0.353463E-04   -0.629924E+00    0.290448E-02    0.179164E+00   -0.514046E-11   -0.469236E-11
   16    2    1  0.7947 -4.3755   -0.122350E-02    0.636816E+00    0.904871E-03   -0.182463E+00   -0.514013E-11    0.469253E-11
   16    2    2  0.7947  0.7947   -0.738190E+00    0.555112E-16    0.683723E+00    0.624500E-16    0.000000E+00    0.000000E+00

     ik =      17 coord.:   0.3333333   0.6666667   0.0000000
   ik ibnd jbnd Enk[eV] Emk[eV]         Re(v_x)         Im(v_x)         Re(v_y)         Im(v_y)         Re(v_z)         Im(v_z)
   17    1    1 -6.2908 -6.2908    0.656021E+00   -0.777156E-15   -0.378754E+00   -0.555112E-16    0.000000E+00    0.000000E+00
   17    1    2 -6.2908  3.2068    0.200572E-02   -0.360203E+00    0.347402E-02    0.207962E+00    0.174870E-11    0.485723E-11
   17    2    1  3.2068 -6.2908   -0.649332E-03    0.370598E+00   -0.112468E-02   -0.213964E+00    0.174808E-11   -0.485708E-11
   17    2    2  3.2068  3.2068   -0.113240E+01    0.111022E-14    0.653793E+00    0.333067E-15    0.000000E+00    0.000000E+00

     ik =      18 coord.:   0.3333333   0.8333333   0.0000000
   ik ibnd jbnd Enk[eV] Emk[eV]         Re(v_x)         Im(v_x)         Re(v_y)         Im(v_y)         Re(v_z)         Im(v_z)
   18    1    1 -6.9697 -6.9697    0.686133E+00    0.333067E-15    0.175273E-02    0.000000E+00    0.000000E+00    0.000000E+00
   18    1    2 -6.9697  4.6459    0.601120E-02   -0.158604E-01    0.347052E-02    0.199943E+00   -0.834497E-11    0.142904E-11
   18    2    1  4.6459 -6.9697   -0.741233E-03    0.243572E-01   -0.427898E-03   -0.210996E+00   -0.834497E-11   -0.142900E-11
   18    2    2  4.6459  4.6459   -0.121632E+01    0.000000E+00   -0.175250E-02    0.111022E-15    0.000000E+00    0.000000E+00

     ik =      19 coord.:   0.5000000   0.0000000   0.0000000
   ik ibnd jbnd Enk[eV] Emk[eV]         Re(v_x)         Im(v_x)         Re(v_y)         Im(v_y)         Re(v_z)         Im(v_z)
   19    1    1 -4.0822 -4.0822   -0.491488E-12    0.377275E-15   -0.287952E-12    0.786600E-16    0.000000E+00    0.000000E+00
   19    1    2 -4.0822 -0.0431   -0.175503E-10    0.106082E+01   -0.250996E-10    0.619311E+00    0.496836E-10   -0.920313E-10
   19    2    1 -0.0431 -4.0822    0.162579E-10   -0.106455E+01   -0.225361E-10   -0.623162E+00    0.496833E-10    0.920314E-10
   19    2    2 -0.0431 -0.0431    0.417462E-12   -0.419577E-15    0.155927E-12   -0.725541E-16    0.000000E+00    0.000000E+00

     ik =      20 coord.:   0.5000000   0.1666667   0.0000000
   ik ibnd jbnd Enk[eV] Emk[eV]         Re(v_x)         Im(v_x)         Re(v_y)         Im(v_y)         Re(v_z)         Im(v_z)
   20    1    1 -4.3755 -4.3755   -0.848116E+00    0.832667E-16   -0.902867E-01    0.555112E-16    0.000000E+00    0.000000E+00
   20    1    2 -4.3755  0.7947   -0.235417E-02    0.453933E+00   -0.131835E-02    0.456644E+00    0.756650E-12   -0.654488E-11
   20    2    1  0.7947 -4.3755   -0.198464E-03   -0.458056E+00   -0.152738E-02   -0.461977E+00    0.756312E-12    0.654495E-11
   20    2    2  0.7947  0.7947    0.960989E+00   -0.111022E-15    0.299374E+00   -0.555112E-16    0.000000E+00    0.000000E+00

     ik =      21 coord.:   0.5000000   0.3333333   0.0000000
   ik ibnd jbnd Enk[eV] Emk[eV]         Re(v_x)         Im(v_x)         Re(v_y)         Im(v_y)         Re(v_z)         Im(v_z)
   21    1    1 -4.3755 -4.3755   -0.848344E+00   -0.499600E-15    0.883421E-01    0.555112E-16    0.000000E+00    0.000000E+00
   21    1    2 -4.3755  0.7947   -0.249768E-02   -0.470123E+00   -0.148285E-02    0.455947E+00   -0.186835E-11    0.400768E-11
   21    2    1  0.7947 -4.3755   -0.139539E-02    0.476426E+00    0.607148E-03   -0.460266E+00   -0.186835E-11   -0.400769E-11
   21    2    2  0.7947  0.7947    0.961216E+00   -0.222045E-15   -0.297430E+00   -0.277556E-16    0.000000E+00    0.000000E+00

     ik =      22 coord.:   0.5000000   0.5000000   0.0000000
   ik ibnd jbnd Enk[eV] Emk[eV]         Re(v_x)         Im(v_x)         Re(v_y)         Im(v_y)         Re(v_z)         Im(v_z)
   22    1    1 -4.0822 -4.0822   -0.670776E-12   -0.180696E-16    0.327038E-13   -0.416799E-15    0.000000E+00    0.000000E+00
   22    1    2 -4.0822 -0.0431    0.164611E-10   -0.106858E+01    0.694036E-11    0.616946E+00   -0.106033E-10    0.475840E-10
   22    2    1 -0.0431 -4.0822    0.701689E-11    0.107299E+01    0.340519E-10   -0.619489E+00   -0.106036E-10   -0.475843E-10
   22    2    2 -0.0431 -0.0431    0.994731E-12   -0.145526E-16   -0.349970E-12    0.294426E-15    0.000000E+00    0.000000E+00

     ik =      23 coord.:   0.5000000   0.6666667   0.0000000
   ik ibnd jbnd Enk[eV] Emk[eV]         Re(v_x)         Im(v_x)         Re(v_y)         Im(v_y)         Re(v_z)         Im(v_z)
   23    1    1 -4.3755 -4.3755    0.848344E+00   -0.194289E-15   -0.883421E-01    0.277556E-15    0.000000E+00    0.000000E+00
   23    1    2 -4.3755  0.7947    0.249768E-02   -0.470123E+00    0.148285E-02    0.455947E+00   -0.117837E-10    0.902795E-11
   23    2    1  0.7947 -4.3755    0.139539E-02    0.476426E+00   -0.607148E-03   -0.460266E+00   -0.117837E-10   -0.902804E-11
   23    2    2  0.7947  0.7947   -0.961216E+00    0.111022E-15    0.297430E+00   -0.222045E-15    0.000000E+00    0.000000E+00

     ik =      24 coord.:   0.5000000   0.8333333   0.0000000
   ik ibnd jbnd Enk[eV] Emk[eV]         Re(v_x)         Im(v_x)         Re(v_y)         Im(v_y)         Re(v_z)         Im(v_z)
   24    1    1 -4.3755 -4.3755    0.848116E+00   -0.194289E-15    0.902867E-01    0.166533E-15    0.000000E+00    0.000000E+00
   24    1    2 -4.3755  0.7947    0.235417E-02    0.453933E+00    0.131835E-02    0.456644E+00    0.375619E-11   -0.668060E-12
   24    2    1  0.7947 -4.3755    0.198464E-03   -0.458056E+00    0.152738E-02   -0.461977E+00    0.375619E-11    0.668150E-12
   24    2    2  0.7947  0.7947   -0.960989E+00    0.388578E-15   -0.299374E+00   -0.138778E-15    0.000000E+00    0.000000E+00

     ik =      25 coord.:   0.6666667   0.0000000   0.0000000
   ik ibnd jbnd Enk[eV] Emk[eV]         Re(v_x)         Im(v_x)         Re(v_y)         Im(v_y)         Re(v_z)         Im(v_z)
   25    1    1 -6.2908 -6.2908   -0.659692E+00   -0.444089E-15   -0.381213E+00   -0.520417E-16    0.000000E+00    0.000000E+00
   25    1    2 -6.2908  3.2068   -0.395668E-02    0.333451E+00    0.316385E-04    0.206345E+00    0.355027E-11    0.168085E-11
   25    2    1  3.2068 -6.2908    0.106573E-02   -0.332567E+00   -0.134509E-03   -0.213839E+00    0.355027E-11   -0.168105E-11
   25    2    2  3.2068  3.2068    0.113607E+01    0.222045E-15    0.656253E+00   -0.624500E-16    0.000000E+00    0.000000E+00

     ik =      26 coord.:   0.6666667   0.1666667   0.0000000
   ik ibnd jbnd Enk[eV] Emk[eV]         Re(v_x)         Im(v_x)         Re(v_y)         Im(v_y)         Re(v_z)         Im(v_z)
   26    1    1 -6.9697 -6.9697   -0.686133E+00   -0.333067E-15   -0.175273E-02   -0.111022E-15    0.000000E+00    0.000000E+00
   26    1    2 -6.9697  4.6459   -0.601120E-02   -0.158604E-01   -0.347052E-02    0.199943E+00    0.306651E-11   -0.493634E-11
   26    2    1  4.6459 -6.9697    0.741233E-03    0.243572E-01    0.427898E-03   -0.210996E+00    0.306803E-11    0.493646E-11
   26    2    2  4.6459  4.6459    0.121632E+01    0.111022E-15    0.175250E-02   -0.555112E-16    0.000000E+00    0.000000E+00

     ik =      27 coord.:   0.6666667   0.3333333   0.0000000
   ik ibnd jbnd Enk[eV] Emk[eV]         Re(v_x)         Im(v_x)         Re(v_y)         Im(v_y)         Re(v_z)         Im(v_z)
   27    1    1 -6.2908 -6.2908   -0.656021E+00   -0.333067E-15    0.378754E+00    0.277556E-15    0.000000E+00    0.000000E+00
   27    1    2 -6.2908  3.2068   -0.200572E-02   -0.360203E+00   -0.347402E-02    0.207962E+00   -0.409617E-12    0.229688E-11
   27    2    1  3.2068 -6.2908    0.649332E-03    0.370598E+00    0.112468E-02   -0.213964E+00   -0.409617E-12   -0.229691E-11
   27    2    2  3.2068  3.2068    0.113240E+01    0.000000E+00   -0.653793E+00   -0.388578E-15    0.000000E+00    0.000000E+00

     ik =      28 coord.:   0.6666667   0.5000000   0.0000000
   ik ibnd jbnd Enk[eV] Emk[eV]         Re(v_x)         Im(v_x)         Re(v_y)         Im(v_y)         Re(v_z)         Im(v_z)
   28    1    1 -4.3755 -4.3755   -0.500678E+00   -0.111022E-15    0.690516E+00   -0.346945E-16    0.000000E+00    0.000000E+00
   28    1    2 -4.3755  0.7947   -0.353463E-04   -0.629924E+00   -0.290448E-02    0.179164E+00    0.145086E-10    0.189880E-10
   28    2    1  0.7947 -4.3755    0.122350E-02    0.636816E+00   -0.904871E-03   -0.182463E+00    0.145083E-10   -0.189882E-10
   28    2    2  0.7947  0.7947    0.738190E+00    0.555112E-16   -0.683723E+00   -0.138778E-16    0.000000E+00    0.000000E+00

     ik =      29 coord.:   0.6666667   0.6666667   0.0000000
   ik ibnd jbnd Enk[eV] Emk[eV]         Re(v_x)         Im(v_x)         Re(v_y)         Im(v_y)         Re(v_z)         Im(v_z)
   29    1    1 -1.7226 -1.7226   -0.757112E+00    0.000000E+00   -0.758692E+00    0.000000E+00   -0.111210E-20    0.000000E+00
   29    1    2 -1.7226 -1.7226    0.000000E+00    0.000000E+00    0.000000E+00    0.000000E+00    0.000000E+00    0.000000E+00
   29    2    1 -1.7226 -1.7226    0.000000E+00    0.000000E+00    0.000000E+00    0.000000E+00    0.000000E+00    0.000000E+00
   29    2    2 -1.7226 -1.7226    0.757112E+00    0.000000E+00    0.758692E+00    0.000000E+00    0.111210E-20    0.000000E+00

     ik =      30 coord.:   0.6666667   0.8333333   0.0000000
   ik ibnd jbnd Enk[eV] Emk[eV]         Re(v_x)         Im(v_x)         Re(v_y)         Im(v_y)         Re(v_z)         Im(v_z)
   30    1    1 -4.3755 -4.3755   -0.502038E+00    0.222045E-15   -0.691609E+00   -0.277556E-16    0.000000E+00    0.000000E+00
   30    1    2 -4.3755  0.7947   -0.235416E-02    0.615955E+00    0.152489E-02    0.178904E+00    0.656388E-11    0.477626E-11
   30    2    1  0.7947 -4.3755   -0.198472E-03   -0.614539E+00    0.149668E-02   -0.186755E+00    0.656388E-11   -0.477619E-11
   30    2    2  0.7947  0.7947    0.739549E+00    0.277556E-16    0.684816E+00   -0.152656E-15    0.000000E+00    0.000000E+00

     ik =      31 coord.:   0.8333333   0.0000000   0.0000000
   ik ibnd jbnd Enk[eV] Emk[eV]         Re(v_x)         Im(v_x)         Re(v_y)         Im(v_y)         Re(v_z)         Im(v_z)
   31    1    1 -8.3855 -8.3855   -0.345657E+00   -0.832667E-15   -0.201905E+00   -0.230718E-15    0.000000E+00    0.000000E+00
   31    1    2 -8.3855  7.6170   -0.625982E-02    0.499857E-01    0.248750E-03    0.535494E-01   -0.736509E-11   -0.527948E-11
   31    2    1  7.6170 -8.3855    0.271797E-02   -0.333060E-01   -0.284421E-04   -0.699316E-01   -0.736613E-11    0.527966E-11
   31    2    2  7.6170  7.6170    0.911958E+00    0.222045E-15    0.528859E+00   -0.693889E-17    0.000000E+00    0.000000E+00

     ik =      32 coord.:   0.8333333   0.1666667   0.0000000
   ik ibnd jbnd Enk[eV] Emk[eV]         Re(v_x)         Im(v_x)         Re(v_y)         Im(v_y)         Re(v_z)         Im(v_z)
   32    1    1 -8.3855 -8.3855   -0.346381E+00    0.555112E-16    0.199983E+00    0.166533E-15    0.000000E+00    0.000000E+00
   32    1    2 -8.3855  7.6170   -0.334531E-02   -0.944975E-01   -0.579426E-02    0.545561E-01   -0.226033E-10    0.270049E-11
   32    2    1  7.6170 -8.3855    0.138359E-02    0.119112E+00    0.239646E-02   -0.687671E-01   -0.226033E-10   -0.270063E-11
   32    2    2  7.6170  7.6170    0.912682E+00   -0.111022E-15   -0.526937E+00   -0.111022E-15    0.000000E+00    0.000000E+00

     ik =      33 coord.:   0.8333333   0.3333333   0.0000000
   ik ibnd jbnd Enk[eV] Emk[eV]         Re(v_x)         Im(v_x)         Re(v_y)         Im(v_y)         Re(v_z)         Im(v_z)
   33    1    1 -6.9697 -6.9697   -0.341549E+00   -0.277556E-15    0.595085E+00    0.555112E-16    0.000000E+00    0.000000E+00
   33    1    2 -6.9697  4.6459    0.477053E-07   -0.181087E+00   -0.694113E-02   -0.862383E-01    0.958987E-11   -0.207419E-10
   33    2    1  4.6459 -6.9697   -0.466155E-07    0.194907E+00    0.855877E-03    0.844062E-01    0.959063E-11    0.207417E-10
   33    2    2  4.6459  4.6459    0.606642E+00    0.444089E-15   -0.105424E+01   -0.111022E-15    0.000000E+00    0.000000E+00

     ik =      34 coord.:   0.8333333   0.5000000   0.0000000
   ik ibnd jbnd Enk[eV] Emk[eV]         Re(v_x)         Im(v_x)         Re(v_y)         Im(v_y)         Re(v_z)         Im(v_z)
   34    1    1 -4.3755 -4.3755   -0.345868E+00    0.555112E-16    0.779634E+00    0.112757E-15    0.000000E+00    0.000000E+00
   34    1    2 -4.3755  0.7947    0.353646E-04   -0.168499E+00   -0.269795E-02   -0.621440E+00    0.106100E-10    0.524396E-11
   34    2    1  0.7947 -4.3755   -0.122352E-02    0.171056E+00   -0.935566E-03    0.627678E+00    0.106100E-10   -0.524383E-11
   34    2    2  0.7947  0.7947    0.221229E+00    0.555112E-16   -0.981928E+00   -0.256739E-15    0.000000E+00    0.000000E+00

     ik =      35 coord.:   0.8333333   0.6666667   0.0000000
   ik ibnd jbnd Enk[eV] Emk[eV]         Re(v_x)         Im(v_x)         Re(v_y)         Im(v_y)         Re(v_z)         Im(v_z)
   35    1    1 -4.3755 -4.3755   -0.347932E+00    0.131839E-15   -0.780582E+00    0.555112E-16    0.000000E+00    0.000000E+00
   35    1    2 -4.3755  0.7947   -0.249767E-02    0.153041E+00    0.127633E-02   -0.622886E+00    0.115725E-10    0.218829E-12
   35    2    1  0.7947 -4.3755   -0.139540E-02   -0.145534E+00   -0.576458E-03    0.625585E+00    0.115722E-10   -0.218758E-12
   35    2    2  0.7947  0.7947    0.223294E+00    0.659195E-16    0.982876E+00   -0.159595E-15    0.000000E+00    0.000000E+00

     ik =      36 coord.:   0.8333333   0.8333333   0.0000000
   ik ibnd jbnd Enk[eV] Emk[eV]         Re(v_x)         Im(v_x)         Re(v_y)         Im(v_y)         Re(v_z)         Im(v_z)
   36    1    1 -6.9697 -6.9697   -0.344844E+00    0.165833E-15   -0.597287E+00    0.103966E-15    0.000000E+00    0.000000E+00
   36    1    2 -6.9697  4.6459   -0.601114E-02    0.152619E+00    0.347054E-02   -0.881162E-01    0.138119E-10   -0.252700E-10
   36    2    1  4.6459 -6.9697    0.741173E-03   -0.135139E+00   -0.427917E-03    0.780242E-01    0.138119E-10    0.252698E-10
   36    2    2  4.6459  4.6459    0.609937E+00   -0.168078E-15    0.105644E+01   -0.262281E-15    0.000000E+00    0.000000E+00

     Unfolding on the coarse grid
     elphon_wrap  :      0.01s CPU      1.25s WALL (       1 calls)

     INITIALIZATION: 




     Electron-Phonon interpolation
     ephwann      :      0.52s CPU      1.43s WALL (       1 calls)
     ep-interp    :      0.19s CPU      0.69s WALL (      36 calls)

     DynW2B       :      0.00s CPU      0.00s WALL (      36 calls)
     HamW2B       :      0.01s CPU      0.20s WALL (    1350 calls)
     ephW2Bp      :      0.07s CPU      0.54s WALL (      36 calls)
     ephW2B       :      0.01s CPU      0.01s WALL (     648 calls)
     vmewan2bloch :      0.02s CPU      0.03s WALL (    1296 calls)
     vmewan2bloch :      0.02s CPU      0.03s WALL (    1296 calls)


     Total program execution
     EPW          :      0.53s CPU      2.80s WALL

     ===============================================================================
     The functionality-dependent EPW.bib file was created with suggested citations. 
     Please consider citing the papers listed in EPW.bib.                           
     ===============================================================================
                                                                                    
