
     Program PROJWFC v.6.8 starts on  9Jun2022 at 15:40:23 

     This program is part of the open-source Quantum ESPRESSO suite
     for quantum simulation of materials; please cite
         "P. Giannozzi et al., J. Phys.:Condens. Matter 21 395502 (2009);
         "P. Giannozzi et al., J. Phys.:Condens. Matter 29 465901 (2017);
         "P. Giannozzi et al., J. Chem. Phys. 152 154105 (2020);
          URL http://www.quantum-espresso.org", 
     in publications or presentations arising from this work. More details at
     http://www.quantum-espresso.org/quote

     Parallel version (MPI & OpenMP), running on      64 processor cores
     Number of MPI processes:                32
     Threads/MPI process:                     2

     MPI processes distributed on     1 nodes
     K-points division:     npool     =      32
     39659 MiB available memory on the printing compute node when the environment starts
 

     Reading xml data from directory:

     ./graphene.save/
     file C.pbe-n-kjpaw_psl.1.0.0.UPF: wavefunction(s)  2S 2P renormalized

     IMPORTANT: XC functional enforced from input :
     Exchange-correlation= PBE
                           (   1   4   3   4   0   0   0)
     Any further DFT definition will be discarded
     Please, verify this is what you really want

 
     G-vector sticks info
     --------------------
     sticks:   dense  smooth     PW     G-vecs:    dense   smooth      PW
     Sum         547     265     85                61509    21673    3993
 
     Using Slab Decomposition
 

     Check: negative core charge=   -0.000005

     negative rho (up, down):  2.163E-04 0.000E+00

     Gaussian broadening (read from file): ngauss,degauss=   0    0.010000


     Calling projwave .... 

     Subspace diagonalization in iterative solution of the eigenvalue problem:
     a serial algorithm will be used

 
  Problem Sizes 
  natomwfc =            8
  nbnd     =           32
  nkstot   =           53
  npwx     =         2771
  nkb      =           16
 

     Atomic states used for projection
     (read from pseudopotential files):

     state #   1: atom   1 (C  ), wfc  1 (l=0 m= 1)
     state #   2: atom   1 (C  ), wfc  2 (l=1 m= 1)
     state #   3: atom   1 (C  ), wfc  2 (l=1 m= 2)
     state #   4: atom   1 (C  ), wfc  2 (l=1 m= 3)
     state #   5: atom   2 (C  ), wfc  1 (l=0 m= 1)
     state #   6: atom   2 (C  ), wfc  2 (l=1 m= 1)
     state #   7: atom   2 (C  ), wfc  2 (l=1 m= 2)
     state #   8: atom   2 (C  ), wfc  2 (l=1 m= 3)

 k =   0.0000000000  0.0000000000  0.0000000000
==== e(   1) =   -21.24235 eV ==== 
     psi = 0.492*[#   1]+0.492*[#   5]
    |psi|^2 = 0.984
==== e(   2) =    -9.33726 eV ==== 
     psi = 0.473*[#   2]+0.473*[#   6]
    |psi|^2 = 0.946
==== e(   3) =    -4.77787 eV ==== 
     psi = 0.374*[#   4]+0.374*[#   8]+0.125*[#   3]+0.125*[#   7]
    |psi|^2 = 0.997
==== e(   4) =    -4.77775 eV ==== 
     psi = 0.374*[#   3]+0.374*[#   7]+0.125*[#   4]+0.125*[#   8]
    |psi|^2 = 0.997
==== e(   5) =     1.42005 eV ==== 
     psi = 0.003*[#   1]+0.003*[#   5]
    |psi|^2 = 0.006
==== e(   6) =     2.24513 eV ==== 
     psi = 0.011*[#   2]+0.011*[#   6]
    |psi|^2 = 0.023
==== e(   7) =     2.50539 eV ==== 
     psi = 0.001*[#   1]+0.001*[#   5]
    |psi|^2 = 0.002
==== e(   8) =     4.47620 eV ==== 
     psi = 0.009*[#   2]+0.009*[#   6]
    |psi|^2 = 0.018
==== e(   9) =     5.31311 eV ==== 
     psi = 0.001*[#   1]+0.001*[#   5]
    |psi|^2 = 0.003
==== e(  10) =     6.59746 eV ==== 
     psi = 0.357*[#   3]+0.357*[#   7]+0.119*[#   4]+0.119*[#   8]
    |psi|^2 = 0.951
==== e(  11) =     6.59760 eV ==== 
     psi = 0.357*[#   4]+0.357*[#   8]+0.119*[#   3]+0.119*[#   7]
    |psi|^2 = 0.951
==== e(  12) =     8.45339 eV ==== 
     psi = 0.004*[#   2]+0.004*[#   6]
    |psi|^2 = 0.008
==== e(  13) =     9.58123 eV ==== 
 
    |psi|^2 = 0.002
==== e(  14) =     9.68177 eV ==== 
     psi = 0.498*[#   2]+0.498*[#   6]
    |psi|^2 = 0.995
==== e(  15) =    10.75242 eV ==== 
     psi = 0.489*[#   1]+0.489*[#   5]
    |psi|^2 = 0.979
==== e(  16) =    13.79316 eV ==== 
     psi = 0.002*[#   2]+0.002*[#   6]
    |psi|^2 = 0.003
==== e(  17) =    15.29874 eV ==== 
 
    |psi|^2 = 0.001
==== e(  18) =    20.36890 eV ==== 
 
    |psi|^2 = 0.002
==== e(  19) =    20.75313 eV ==== 
 
    |psi|^2 = 0.001
==== e(  20) =    22.46102 eV ==== 
 
    |psi|^2 = 0.001
==== e(  21) =    26.48097 eV ==== 
 
    |psi|^2 = 0.000
==== e(  22) =    26.48101 eV ==== 
 
    |psi|^2 = 0.000
==== e(  23) =    27.42770 eV ==== 
 
    |psi|^2 = 0.000
==== e(  24) =    29.86491 eV ==== 
 
    |psi|^2 = 0.000
==== e(  25) =    29.86495 eV ==== 
 
    |psi|^2 = 0.000
==== e(  26) =    30.95706 eV ==== 
 
    |psi|^2 = 0.000
==== e(  27) =    31.85240 eV ==== 
 
    |psi|^2 = 0.000
==== e(  28) =    33.43694 eV ==== 
 
    |psi|^2 = 0.000
==== e(  29) =    33.43694 eV ==== 
 
    |psi|^2 = 0.000
==== e(  30) =    33.92084 eV ==== 
     psi = 0.002*[#   3]+0.002*[#   7]
    |psi|^2 = 0.005
==== e(  31) =    33.92085 eV ==== 
     psi = 0.002*[#   4]+0.002*[#   8]
    |psi|^2 = 0.005
==== e(  32) =    34.35146 eV ==== 
     psi = 0.002*[#   1]+0.002*[#   5]
    |psi|^2 = 0.005

 k =   0.0250000000  0.0144337567  0.0000000000
==== e(   1) =   -21.22758 eV ==== 
     psi = 0.489*[#   1]+0.489*[#   5]+0.002*[#   3]+0.002*[#   7]
    |psi|^2 = 0.984
==== e(   2) =    -9.31961 eV ==== 
     psi = 0.473*[#   2]+0.473*[#   6]
    |psi|^2 = 0.946
==== e(   3) =    -4.83926 eV ==== 
     psi = 0.372*[#   3]+0.372*[#   7]+0.125*[#   4]+0.125*[#   8]+0.002*[#   1]
          +0.002*[#   5]
    |psi|^2 = 0.997
==== e(   4) =    -4.81024 eV ==== 
     psi = 0.373*[#   4]+0.373*[#   8]+0.125*[#   3]+0.125*[#   7]
    |psi|^2 = 0.997
==== e(   5) =     1.44019 eV ==== 
     psi = 0.003*[#   1]+0.003*[#   5]
    |psi|^2 = 0.007
==== e(   6) =     2.26542 eV ==== 
     psi = 0.011*[#   2]+0.011*[#   6]
    |psi|^2 = 0.023
==== e(   7) =     2.52573 eV ==== 
     psi = 0.001*[#   1]+0.001*[#   5]
    |psi|^2 = 0.003
==== e(   8) =     4.49626 eV ==== 
     psi = 0.009*[#   2]+0.009*[#   6]
    |psi|^2 = 0.017
==== e(   9) =     5.33285 eV ==== 
     psi = 0.001*[#   1]+0.001*[#   5]
    |psi|^2 = 0.003
==== e(  10) =     6.60707 eV ==== 
     psi = 0.354*[#   3]+0.354*[#   7]+0.117*[#   4]+0.117*[#   8]+0.003*[#   1]
          +0.003*[#   5]
    |psi|^2 = 0.948
==== e(  11) =     6.66211 eV ==== 
     psi = 0.357*[#   4]+0.357*[#   8]+0.118*[#   3]+0.118*[#   7]
    |psi|^2 = 0.951
==== e(  12) =     8.47293 eV ==== 
     psi = 0.004*[#   2]+0.004*[#   6]
    |psi|^2 = 0.008
==== e(  13) =     9.60154 eV ==== 
 
    |psi|^2 = 0.002
==== e(  14) =     9.62992 eV ==== 
     psi = 0.497*[#   2]+0.497*[#   6]
    |psi|^2 = 0.995
==== e(  15) =    10.77835 eV ==== 
     psi = 0.488*[#   1]+0.488*[#   5]+0.001*[#   3]+0.001*[#   7]
    |psi|^2 = 0.978
==== e(  16) =    13.81127 eV ==== 
     psi = 0.002*[#   2]+0.002*[#   6]
    |psi|^2 = 0.003
==== e(  17) =    15.31867 eV ==== 
 
    |psi|^2 = 0.001
==== e(  18) =    20.38064 eV ==== 
 
    |psi|^2 = 0.002
==== e(  19) =    20.80185 eV ==== 
 
    |psi|^2 = 0.001
==== e(  20) =    22.48034 eV ==== 
 
    |psi|^2 = 0.001
==== e(  21) =    26.31649 eV ==== 
 
    |psi|^2 = 0.000
==== e(  22) =    26.32666 eV ==== 
 
    |psi|^2 = 0.001
==== e(  23) =    27.33276 eV ==== 
 
    |psi|^2 = 0.000
==== e(  24) =    29.86425 eV ==== 
 
    |psi|^2 = 0.000
==== e(  25) =    30.06512 eV ==== 
 
    |psi|^2 = 0.000
==== e(  26) =    30.97528 eV ==== 
 
    |psi|^2 = 0.000
==== e(  27) =    32.20610 eV ==== 
 
    |psi|^2 = 0.000
==== e(  28) =    32.34385 eV ==== 
 
    |psi|^2 = 0.003
==== e(  29) =    32.86377 eV ==== 
 
    |psi|^2 = 0.002
==== e(  30) =    33.49362 eV ==== 
 
    |psi|^2 = 0.002
==== e(  31) =    33.70791 eV ==== 
 
    |psi|^2 = 0.000
==== e(  32) =    33.72054 eV ==== 
 
    |psi|^2 = 0.001

 k =   0.0500000000  0.0288675135  0.0000000000
==== e(   1) =   -21.18334 eV ==== 
     psi = 0.481*[#   1]+0.481*[#   5]+0.008*[#   3]+0.008*[#   7]+0.003*[#   4]
          +0.003*[#   8]
    |psi|^2 = 0.984
==== e(   2) =    -9.26669 eV ==== 
     psi = 0.474*[#   2]+0.474*[#   6]
    |psi|^2 = 0.948
==== e(   3) =    -5.01994 eV ==== 
     psi = 0.369*[#   3]+0.369*[#   7]+0.123*[#   4]+0.123*[#   8]+0.006*[#   1]
          +0.006*[#   5]
    |psi|^2 = 0.997
==== e(   4) =    -4.90505 eV ==== 
     psi = 0.374*[#   4]+0.374*[#   8]+0.125*[#   3]+0.125*[#   7]
    |psi|^2 = 0.997
==== e(   5) =     1.50061 eV ==== 
     psi = 0.002*[#   3]+0.002*[#   7]+0.002*[#   1]+0.002*[#   5]
    |psi|^2 = 0.011
==== e(   6) =     2.32628 eV ==== 
     psi = 0.011*[#   2]+0.011*[#   6]
    |psi|^2 = 0.022
==== e(   7) =     2.58675 eV ==== 
 
    |psi|^2 = 0.004
==== e(   8) =     4.55643 eV ==== 
     psi = 0.008*[#   2]+0.008*[#   6]
    |psi|^2 = 0.017
==== e(   9) =     5.39209 eV ==== 
     psi = 0.001*[#   1]+0.001*[#   5]
    |psi|^2 = 0.003
==== e(  10) =     6.63134 eV ==== 
     psi = 0.344*[#   3]+0.344*[#   7]+0.115*[#   4]+0.115*[#   8]+0.012*[#   1]
          +0.012*[#   5]
    |psi|^2 = 0.941
==== e(  11) =     6.85327 eV ==== 
     psi = 0.356*[#   4]+0.356*[#   8]+0.119*[#   3]+0.119*[#   7]
    |psi|^2 = 0.950
==== e(  12) =     8.53148 eV ==== 
     psi = 0.004*[#   2]+0.004*[#   6]
    |psi|^2 = 0.008
==== e(  13) =     9.47619 eV ==== 
     psi = 0.496*[#   2]+0.496*[#   6]
    |psi|^2 = 0.993
==== e(  14) =     9.66241 eV ==== 
 
    |psi|^2 = 0.003
==== e(  15) =    10.85805 eV ==== 
     psi = 0.482*[#   1]+0.482*[#   5]+0.005*[#   3]+0.005*[#   7]+0.002*[#   4]
          +0.002*[#   8]
    |psi|^2 = 0.978
==== e(  16) =    13.86546 eV ==== 
     psi = 0.002*[#   2]+0.002*[#   6]
    |psi|^2 = 0.003
==== e(  17) =    15.37835 eV ==== 
 
    |psi|^2 = 0.001
==== e(  18) =    20.41377 eV ==== 
 
    |psi|^2 = 0.001
==== e(  19) =    20.94460 eV ==== 
 
    |psi|^2 = 0.003
==== e(  20) =    22.53860 eV ==== 
 
    |psi|^2 = 0.001
==== e(  21) =    25.79558 eV ==== 
     psi = 0.001*[#   2]+0.001*[#   6]
    |psi|^2 = 0.003
==== e(  22) =    25.90801 eV ==== 
 
    |psi|^2 = 0.000
==== e(  23) =    27.27967 eV ==== 
 
    |psi|^2 = 0.001
==== e(  24) =    29.87883 eV ==== 
 
    |psi|^2 = 0.000
==== e(  25) =    30.57777 eV ==== 
 
    |psi|^2 = 0.000
==== e(  26) =    30.89689 eV ==== 
 
    |psi|^2 = 0.003
==== e(  27) =    31.03225 eV ==== 
 
    |psi|^2 = 0.000
==== e(  28) =    32.11637 eV ==== 
 
    |psi|^2 = 0.001
==== e(  29) =    32.13756 eV ==== 
 
    |psi|^2 = 0.002
==== e(  30) =    32.24743 eV ==== 
 
    |psi|^2 = 0.000
==== e(  31) =    32.87824 eV ==== 
 
    |psi|^2 = 0.002
==== e(  32) =    33.07912 eV ==== 
 
    |psi|^2 = 0.000

 k =   0.0750000000  0.0433012702  0.0000000000
==== e(   1) =   -21.10963 eV ==== 
     psi = 0.469*[#   1]+0.469*[#   5]+0.017*[#   3]+0.017*[#   7]+0.006*[#   4]
          +0.006*[#   8]
    |psi|^2 = 0.984
==== e(   2) =    -9.17862 eV ==== 
     psi = 0.475*[#   2]+0.475*[#   6]
    |psi|^2 = 0.950
==== e(   3) =    -5.30999 eV ==== 
     psi = 0.363*[#   3]+0.363*[#   7]+0.121*[#   4]+0.121*[#   8]+0.014*[#   1]
          +0.014*[#   5]
    |psi|^2 = 0.997
==== e(   4) =    -5.05522 eV ==== 
     psi = 0.374*[#   4]+0.374*[#   8]+0.125*[#   3]+0.125*[#   7]
    |psi|^2 = 0.997
==== e(   5) =     1.60133 eV ==== 
     psi = 0.005*[#   3]+0.005*[#   7]+0.002*[#   4]+0.002*[#   8]+0.001*[#   1]
          +0.001*[#   5]
    |psi|^2 = 0.016
==== e(   6) =     2.42768 eV ==== 
     psi = 0.011*[#   2]+0.011*[#   6]
    |psi|^2 = 0.021
==== e(   7) =     2.68846 eV ==== 
     psi = 0.001*[#   3]+0.001*[#   7]
    |psi|^2 = 0.005
==== e(   8) =     4.65667 eV ==== 
     psi = 0.008*[#   2]+0.008*[#   6]
    |psi|^2 = 0.016
==== e(   9) =     5.49078 eV ==== 
     psi = 0.001*[#   1]+0.001*[#   5]
    |psi|^2 = 0.003
==== e(  10) =     6.65975 eV ==== 
     psi = 0.329*[#   3]+0.329*[#   7]+0.109*[#   4]+0.109*[#   8]+0.028*[#   1]
          +0.028*[#   5]
    |psi|^2 = 0.931
==== e(  11) =     7.16330 eV ==== 
     psi = 0.356*[#   4]+0.356*[#   8]+0.118*[#   3]+0.118*[#   7]
    |psi|^2 = 0.948
==== e(  12) =     8.62884 eV ==== 
     psi = 0.004*[#   2]+0.004*[#   6]
    |psi|^2 = 0.008
==== e(  13) =     9.22581 eV ==== 
     psi = 0.494*[#   2]+0.494*[#   6]
    |psi|^2 = 0.989
==== e(  14) =     9.76355 eV ==== 
     psi = 0.001*[#   3]+0.001*[#   7]
    |psi|^2 = 0.005
==== e(  15) =    10.99608 eV ==== 
     psi = 0.471*[#   1]+0.471*[#   5]+0.013*[#   3]+0.013*[#   7]+0.004*[#   4]
          +0.004*[#   8]
    |psi|^2 = 0.976
==== e(  16) =    13.95520 eV ==== 
     psi = 0.002*[#   2]+0.002*[#   6]
    |psi|^2 = 0.003
==== e(  17) =    15.47752 eV ==== 
 
    |psi|^2 = 0.001
==== e(  18) =    20.46114 eV ==== 
 
    |psi|^2 = 0.001
==== e(  19) =    21.17083 eV ==== 
     psi = 0.001*[#   1]+0.001*[#   3]+0.001*[#   5]+0.001*[#   7]
    |psi|^2 = 0.005
==== e(  20) =    22.63686 eV ==== 
 
    |psi|^2 = 0.001
==== e(  21) =    25.01694 eV ==== 
     psi = 0.002*[#   2]+0.002*[#   6]
    |psi|^2 = 0.004
==== e(  22) =    25.38666 eV ==== 
 
    |psi|^2 = 0.000
==== e(  23) =    27.36994 eV ==== 
     psi = 0.001*[#   2]+0.001*[#   6]
    |psi|^2 = 0.002
==== e(  24) =    29.45278 eV ==== 
     psi = 0.001*[#   1]+0.001*[#   5]
    |psi|^2 = 0.003
==== e(  25) =    29.88995 eV ==== 
 
    |psi|^2 = 0.001
==== e(  26) =    30.61255 eV ==== 
 
    |psi|^2 = 0.001
==== e(  27) =    30.80635 eV ==== 
 
    |psi|^2 = 0.000
==== e(  28) =    31.12159 eV ==== 
 
    |psi|^2 = 0.000
==== e(  29) =    31.25663 eV ==== 
 
    |psi|^2 = 0.000
==== e(  30) =    31.43716 eV ==== 
 
    |psi|^2 = 0.002
==== e(  31) =    32.18566 eV ==== 
 
    |psi|^2 = 0.002
==== e(  32) =    32.86740 eV ==== 
 
    |psi|^2 = 0.000

 k =   0.1000000000  0.0577350269  0.0000000000
==== e(   1) =   -21.00654 eV ==== 
     psi = 0.453*[#   1]+0.453*[#   5]+0.029*[#   3]+0.029*[#   7]+0.010*[#   4]
          +0.010*[#   8]
    |psi|^2 = 0.983
==== e(   2) =    -9.05562 eV ==== 
     psi = 0.476*[#   2]+0.476*[#   6]
    |psi|^2 = 0.953
==== e(   3) =    -5.69514 eV ==== 
     psi = 0.356*[#   3]+0.356*[#   7]+0.119*[#   4]+0.119*[#   8]+0.023*[#   1]
          +0.023*[#   5]
    |psi|^2 = 0.997
==== e(   4) =    -5.25065 eV ==== 
     psi = 0.374*[#   4]+0.374*[#   8]+0.125*[#   3]+0.125*[#   7]
    |psi|^2 = 0.997
==== e(   5) =     1.74233 eV ==== 
     psi = 0.007*[#   3]+0.007*[#   7]+0.002*[#   4]+0.002*[#   8]
    |psi|^2 = 0.021
==== e(   6) =     2.56957 eV ==== 
     psi = 0.010*[#   2]+0.010*[#   6]
    |psi|^2 = 0.020
==== e(   7) =     2.83087 eV ==== 
     psi = 0.002*[#   3]+0.002*[#   7]
    |psi|^2 = 0.007
==== e(   8) =     4.79687 eV ==== 
     psi = 0.008*[#   2]+0.008*[#   6]
    |psi|^2 = 0.015
==== e(   9) =     5.62871 eV ==== 
     psi = 0.002*[#   1]+0.002*[#   5]
    |psi|^2 = 0.003
==== e(  10) =     6.67960 eV ==== 
     psi = 0.308*[#   3]+0.308*[#   7]+0.103*[#   4]+0.103*[#   8]+0.049*[#   1]
          +0.049*[#   5]
    |psi|^2 = 0.920
==== e(  11) =     7.58149 eV ==== 
     psi = 0.355*[#   4]+0.355*[#   8]+0.118*[#   3]+0.118*[#   7]
    |psi|^2 = 0.946
==== e(  12) =     8.76222 eV ==== 
     psi = 0.015*[#   2]+0.015*[#   6]
    |psi|^2 = 0.029
==== e(  13) =     8.88915 eV ==== 
     psi = 0.481*[#   2]+0.481*[#   6]
    |psi|^2 = 0.963
==== e(  14) =     9.90451 eV ==== 
     psi = 0.002*[#   3]+0.002*[#   7]
    |psi|^2 = 0.006
==== e(  15) =    11.19688 eV ==== 
     psi = 0.455*[#   1]+0.455*[#   5]+0.024*[#   3]+0.024*[#   7]+0.008*[#   4]
          +0.008*[#   8]
    |psi|^2 = 0.972
==== e(  16) =    14.07962 eV ==== 
     psi = 0.002*[#   2]+0.002*[#   6]
    |psi|^2 = 0.003
==== e(  17) =    15.61581 eV ==== 
 
    |psi|^2 = 0.002
==== e(  18) =    20.50703 eV ==== 
 
    |psi|^2 = 0.001
==== e(  19) =    21.46151 eV ==== 
     psi = 0.002*[#   3]+0.002*[#   7]+0.002*[#   1]+0.002*[#   5]
    |psi|^2 = 0.009
==== e(  20) =    22.77740 eV ==== 
 
    |psi|^2 = 0.001
==== e(  21) =    24.18465 eV ==== 
     psi = 0.003*[#   2]+0.003*[#   6]
    |psi|^2 = 0.007
==== e(  22) =    24.82921 eV ==== 
 
    |psi|^2 = 0.000
==== e(  23) =    27.51418 eV ==== 
     psi = 0.002*[#   2]+0.002*[#   6]
    |psi|^2 = 0.004
==== e(  24) =    28.03774 eV ==== 
     psi = 0.001*[#   1]+0.001*[#   5]
    |psi|^2 = 0.004
==== e(  25) =    29.14450 eV ==== 
 
    |psi|^2 = 0.002
==== e(  26) =    29.25937 eV ==== 
 
    |psi|^2 = 0.000
==== e(  27) =    30.05533 eV ==== 
 
    |psi|^2 = 0.001
==== e(  28) =    30.77203 eV ==== 
 
    |psi|^2 = 0.002
==== e(  29) =    31.24288 eV ==== 
 
    |psi|^2 = 0.000
==== e(  30) =    31.49077 eV ==== 
     psi = 0.001*[#   1]+0.001*[#   5]
    |psi|^2 = 0.003
==== e(  31) =    31.65807 eV ==== 
 
    |psi|^2 = 0.000
==== e(  32) =    31.90236 eV ==== 
 
    |psi|^2 = 0.001

 k =   0.1250000000  0.0721687836  0.0000000000
==== e(   1) =   -20.87418 eV ==== 
     psi = 0.435*[#   1]+0.435*[#   5]+0.042*[#   3]+0.042*[#   7]+0.014*[#   4]
          +0.014*[#   8]
    |psi|^2 = 0.983
==== e(   2) =    -8.89798 eV ==== 
     psi = 0.478*[#   2]+0.478*[#   6]
    |psi|^2 = 0.956
==== e(   3) =    -6.15939 eV ==== 
     psi = 0.348*[#   3]+0.348*[#   7]+0.116*[#   4]+0.116*[#   8]+0.034*[#   1]
          +0.034*[#   5]
    |psi|^2 = 0.996
==== e(   4) =    -5.47998 eV ==== 
     psi = 0.374*[#   4]+0.374*[#   8]+0.125*[#   3]+0.125*[#   7]
    |psi|^2 = 0.997
==== e(   5) =     1.92360 eV ==== 
     psi = 0.010*[#   3]+0.010*[#   7]+0.003*[#   4]+0.003*[#   8]
    |psi|^2 = 0.027
==== e(   6) =     2.75189 eV ==== 
     psi = 0.009*[#   2]+0.009*[#   6]
    |psi|^2 = 0.019
==== e(   7) =     3.01397 eV ==== 
     psi = 0.003*[#   3]+0.003*[#   7]
    |psi|^2 = 0.008
==== e(   8) =     4.97687 eV ==== 
     psi = 0.007*[#   2]+0.007*[#   6]
    |psi|^2 = 0.014
==== e(   9) =     5.80510 eV ==== 
     psi = 0.002*[#   1]+0.002*[#   5]
    |psi|^2 = 0.005
==== e(  10) =     6.68137 eV ==== 
     psi = 0.285*[#   3]+0.285*[#   7]+0.095*[#   4]+0.095*[#   8]+0.075*[#   1]
          +0.075*[#   5]
    |psi|^2 = 0.909
==== e(  11) =     8.09530 eV ==== 
     psi = 0.354*[#   4]+0.354*[#   8]+0.118*[#   3]+0.118*[#   7]
    |psi|^2 = 0.943
==== e(  12) =     8.46459 eV ==== 
     psi = 0.487*[#   2]+0.487*[#   6]
    |psi|^2 = 0.974
==== e(  13) =     8.94242 eV ==== 
     psi = 0.006*[#   2]+0.006*[#   6]
    |psi|^2 = 0.012
==== e(  14) =    10.08480 eV ==== 
     psi = 0.002*[#   3]+0.002*[#   7]
    |psi|^2 = 0.007
==== e(  15) =    11.46130 eV ==== 
     psi = 0.433*[#   1]+0.433*[#   5]+0.038*[#   3]+0.038*[#   7]+0.013*[#   4]
          +0.013*[#   8]
    |psi|^2 = 0.966
==== e(  16) =    14.23740 eV ==== 
     psi = 0.001*[#   2]+0.001*[#   6]
    |psi|^2 = 0.003
==== e(  17) =    15.79276 eV ==== 
 
    |psi|^2 = 0.002
==== e(  18) =    20.51847 eV ==== 
 
    |psi|^2 = 0.002
==== e(  19) =    21.78522 eV ==== 
     psi = 0.003*[#   3]+0.003*[#   7]+0.003*[#   1]+0.003*[#   5]+0.001*[#   4]
          +0.001*[#   8]
    |psi|^2 = 0.014
==== e(  20) =    22.96400 eV ==== 
 
    |psi|^2 = 0.001
==== e(  21) =    23.40977 eV ==== 
     psi = 0.004*[#   2]+0.004*[#   6]
    |psi|^2 = 0.009
==== e(  22) =    24.27166 eV ==== 
 
    |psi|^2 = 0.000
==== e(  23) =    26.66922 eV ==== 
     psi = 0.002*[#   1]+0.002*[#   5]
    |psi|^2 = 0.004
==== e(  24) =    27.46551 eV ==== 
     psi = 0.001*[#   2]+0.001*[#   6]
    |psi|^2 = 0.002
==== e(  25) =    27.72227 eV ==== 
 
    |psi|^2 = 0.002
==== e(  26) =    28.10268 eV ==== 
     psi = 0.001*[#   2]+0.001*[#   6]
    |psi|^2 = 0.003
==== e(  27) =    30.00982 eV ==== 
     psi = 0.001*[#   2]+0.001*[#   6]
    |psi|^2 = 0.002
==== e(  28) =    30.14446 eV ==== 
 
    |psi|^2 = 0.003
==== e(  29) =    30.39266 eV ==== 
     psi = 0.002*[#   1]+0.002*[#   5]
    |psi|^2 = 0.004
==== e(  30) =    30.40833 eV ==== 
 
    |psi|^2 = 0.000
==== e(  31) =    30.98941 eV ==== 
 
    |psi|^2 = 0.001
==== e(  32) =    31.42230 eV ==== 
 
    |psi|^2 = 0.000

 k =   0.1500000000  0.0866025404  0.0000000000
==== e(   1) =   -20.71266 eV ==== 
     psi = 0.417*[#   1]+0.417*[#   5]+0.056*[#   3]+0.056*[#   7]+0.019*[#   4]
          +0.019*[#   8]
    |psi|^2 = 0.983
==== e(   2) =    -8.70611 eV ==== 
     psi = 0.480*[#   2]+0.480*[#   6]
    |psi|^2 = 0.960
==== e(   3) =    -6.68680 eV ==== 
     psi = 0.338*[#   3]+0.338*[#   7]+0.113*[#   4]+0.113*[#   8]+0.046*[#   1]
          +0.046*[#   5]
    |psi|^2 = 0.995
==== e(   4) =    -5.73208 eV ==== 
     psi = 0.374*[#   4]+0.374*[#   8]+0.125*[#   3]+0.125*[#   7]
    |psi|^2 = 0.997
==== e(   5) =     2.14511 eV ==== 
     psi = 0.011*[#   3]+0.011*[#   7]+0.004*[#   4]+0.004*[#   8]
    |psi|^2 = 0.031
==== e(   6) =     2.97451 eV ==== 
     psi = 0.008*[#   2]+0.008*[#   6]
    |psi|^2 = 0.017
==== e(   7) =     3.23777 eV ==== 
     psi = 0.003*[#   3]+0.003*[#   7]+0.001*[#   4]+0.001*[#   8]
    |psi|^2 = 0.009
==== e(   8) =     5.19633 eV ==== 
     psi = 0.006*[#   2]+0.006*[#   6]
    |psi|^2 = 0.013
==== e(   9) =     6.01736 eV ==== 
     psi = 0.005*[#   1]+0.005*[#   5]+0.002*[#   3]+0.002*[#   7]
    |psi|^2 = 0.014
==== e(  10) =     6.66241 eV ==== 
     psi = 0.259*[#   3]+0.259*[#   7]+0.102*[#   1]+0.102*[#   5]+0.086*[#   4]
          +0.086*[#   8]
    |psi|^2 = 0.893
==== e(  11) =     7.97645 eV ==== 
     psi = 0.486*[#   2]+0.486*[#   6]
    |psi|^2 = 0.972
==== e(  12) =     8.69199 eV ==== 
     psi = 0.352*[#   4]+0.352*[#   8]+0.117*[#   3]+0.117*[#   7]
    |psi|^2 = 0.939
==== e(  13) =     9.15540 eV ==== 
     psi = 0.004*[#   2]+0.004*[#   6]
    |psi|^2 = 0.009
==== e(  14) =    10.30405 eV ==== 
     psi = 0.003*[#   3]+0.003*[#   7]
    |psi|^2 = 0.008
==== e(  15) =    11.78468 eV ==== 
     psi = 0.407*[#   1]+0.407*[#   5]+0.054*[#   3]+0.054*[#   7]+0.018*[#   4]
          +0.018*[#   8]
    |psi|^2 = 0.956
==== e(  16) =    14.42657 eV ==== 
     psi = 0.001*[#   2]+0.001*[#   6]
    |psi|^2 = 0.003
==== e(  17) =    16.00792 eV ==== 
 
    |psi|^2 = 0.002
==== e(  18) =    20.43080 eV ==== 
     psi = 0.002*[#   2]+0.002*[#   6]
    |psi|^2 = 0.004
==== e(  19) =    22.08779 eV ==== 
     psi = 0.005*[#   3]+0.005*[#   7]+0.004*[#   1]+0.004*[#   5]+0.002*[#   4]
          +0.002*[#   8]
    |psi|^2 = 0.022
==== e(  20) =    22.78433 eV ==== 
     psi = 0.005*[#   2]+0.005*[#   6]
    |psi|^2 = 0.009
==== e(  21) =    23.19820 eV ==== 
 
    |psi|^2 = 0.002
==== e(  22) =    23.73153 eV ==== 
 
    |psi|^2 = 0.000
==== e(  23) =    25.37082 eV ==== 
     psi = 0.002*[#   1]+0.002*[#   5]
    |psi|^2 = 0.004
==== e(  24) =    26.35868 eV ==== 
     psi = 0.001*[#   1]+0.001*[#   5]
    |psi|^2 = 0.003
==== e(  25) =    26.40071 eV ==== 
 
    |psi|^2 = 0.000
==== e(  26) =    27.80739 eV ==== 
     psi = 0.002*[#   2]+0.002*[#   6]
    |psi|^2 = 0.004
==== e(  27) =    29.07381 eV ==== 
     psi = 0.002*[#   1]+0.002*[#   5]
    |psi|^2 = 0.005
==== e(  28) =    29.26439 eV ==== 
     psi = 0.001*[#   2]+0.001*[#   6]
    |psi|^2 = 0.003
==== e(  29) =    29.55530 eV ==== 
     psi = 0.001*[#   4]+0.001*[#   8]
    |psi|^2 = 0.003
==== e(  30) =    30.00382 eV ==== 
 
    |psi|^2 = 0.001
==== e(  31) =    30.39132 eV ==== 
 
    |psi|^2 = 0.001
==== e(  32) =    31.07057 eV ==== 
 
    |psi|^2 = 0.000

 k =   0.1750000000  0.1010362971  0.0000000000
==== e(   1) =   -20.52214 eV ==== 
     psi = 0.398*[#   1]+0.398*[#   5]+0.070*[#   3]+0.070*[#   7]+0.023*[#   4]
          +0.023*[#   8]
    |psi|^2 = 0.982
==== e(   2) =    -8.48057 eV ==== 
     psi = 0.482*[#   2]+0.482*[#   6]
    |psi|^2 = 0.965
==== e(   3) =    -7.26275 eV ==== 
     psi = 0.329*[#   3]+0.329*[#   7]+0.110*[#   4]+0.110*[#   8]+0.059*[#   1]
          +0.059*[#   5]
    |psi|^2 = 0.994
==== e(   4) =    -5.99682 eV ==== 
     psi = 0.374*[#   4]+0.374*[#   8]+0.125*[#   3]+0.125*[#   7]
    |psi|^2 = 0.997
==== e(   5) =     2.40679 eV ==== 
     psi = 0.012*[#   3]+0.012*[#   7]+0.004*[#   4]+0.004*[#   8]
    |psi|^2 = 0.033
==== e(   6) =     3.23720 eV ==== 
     psi = 0.008*[#   2]+0.008*[#   6]
    |psi|^2 = 0.015
==== e(   7) =     3.50223 eV ==== 
     psi = 0.003*[#   3]+0.003*[#   7]+0.001*[#   4]+0.001*[#   8]
    |psi|^2 = 0.009
==== e(   8) =     5.45441 eV ==== 
     psi = 0.006*[#   2]+0.006*[#   6]
    |psi|^2 = 0.012
==== e(   9) =     6.25305 eV ==== 
     psi = 0.018*[#   1]+0.018*[#   5]+0.014*[#   3]+0.014*[#   7]+0.005*[#   4]
          +0.005*[#   8]
    |psi|^2 = 0.073
==== e(  10) =     6.63541 eV ==== 
     psi = 0.222*[#   3]+0.222*[#   7]+0.119*[#   1]+0.119*[#   5]+0.074*[#   4]
          +0.074*[#   8]
    |psi|^2 = 0.829
==== e(  11) =     7.42999 eV ==== 
     psi = 0.483*[#   2]+0.483*[#   6]
    |psi|^2 = 0.967
==== e(  12) =     9.35910 eV ==== 
     psi = 0.351*[#   4]+0.351*[#   8]+0.117*[#   3]+0.117*[#   7]
    |psi|^2 = 0.936
==== e(  13) =     9.40680 eV ==== 
     psi = 0.004*[#   2]+0.004*[#   6]
    |psi|^2 = 0.007
==== e(  14) =    10.56203 eV ==== 
     psi = 0.002*[#   3]+0.002*[#   7]
    |psi|^2 = 0.008
==== e(  15) =    12.15683 eV ==== 
     psi = 0.378*[#   1]+0.378*[#   5]+0.070*[#   3]+0.070*[#   7]+0.023*[#   4]
          +0.023*[#   8]
    |psi|^2 = 0.942
==== e(  16) =    14.64407 eV ==== 
     psi = 0.001*[#   2]+0.001*[#   6]
    |psi|^2 = 0.003
==== e(  17) =    16.26077 eV ==== 
 
    |psi|^2 = 0.002
==== e(  18) =    20.16100 eV ==== 
     psi = 0.004*[#   2]+0.004*[#   6]
    |psi|^2 = 0.008
==== e(  19) =    22.25246 eV ==== 
     psi = 0.008*[#   3]+0.008*[#   7]+0.006*[#   1]+0.006*[#   5]+0.003*[#   4]
          +0.003*[#   8]
    |psi|^2 = 0.034
==== e(  20) =    22.39117 eV ==== 
     psi = 0.004*[#   2]+0.004*[#   6]
    |psi|^2 = 0.008
==== e(  21) =    23.21761 eV ==== 
 
    |psi|^2 = 0.000
==== e(  22) =    23.44315 eV ==== 
 
    |psi|^2 = 0.003
==== e(  23) =    24.22037 eV ==== 
     psi = 0.001*[#   1]+0.001*[#   5]
    |psi|^2 = 0.004
==== e(  24) =    25.10212 eV ==== 
     psi = 0.002*[#   1]+0.002*[#   5]
    |psi|^2 = 0.004
==== e(  25) =    25.13409 eV ==== 
 
    |psi|^2 = 0.000
==== e(  26) =    27.18965 eV ==== 
 
    |psi|^2 = 0.001
==== e(  27) =    27.78904 eV ==== 
     psi = 0.002*[#   1]+0.002*[#   5]
    |psi|^2 = 0.006
==== e(  28) =    28.70602 eV ==== 
     psi = 0.003*[#   2]+0.003*[#   6]
    |psi|^2 = 0.007
==== e(  29) =    29.00498 eV ==== 
     psi = 0.001*[#   4]+0.001*[#   8]
    |psi|^2 = 0.003
==== e(  30) =    29.84655 eV ==== 
 
    |psi|^2 = 0.002
==== e(  31) =    29.88624 eV ==== 
 
    |psi|^2 = 0.001
==== e(  32) =    30.51556 eV ==== 
 
    |psi|^2 = 0.001

 k =   0.2000000000  0.1154700538  0.0000000000
==== e(   1) =   -20.30286 eV ==== 
     psi = 0.380*[#   1]+0.380*[#   5]+0.083*[#   3]+0.083*[#   7]+0.028*[#   4]
          +0.028*[#   8]
    |psi|^2 = 0.982
==== e(   2) =    -8.22207 eV ==== 
     psi = 0.485*[#   2]+0.485*[#   6]
    |psi|^2 = 0.969
==== e(   3) =    -7.87456 eV ==== 
     psi = 0.319*[#   3]+0.319*[#   7]+0.107*[#   4]+0.107*[#   8]+0.071*[#   1]
          +0.071*[#   5]
    |psi|^2 = 0.994
==== e(   4) =    -6.26548 eV ==== 
     psi = 0.374*[#   4]+0.374*[#   8]+0.125*[#   3]+0.125*[#   7]
    |psi|^2 = 0.997
==== e(   5) =     2.70857 eV ==== 
     psi = 0.013*[#   3]+0.013*[#   7]+0.004*[#   4]+0.004*[#   8]
    |psi|^2 = 0.034
==== e(   6) =     3.53954 eV ==== 
     psi = 0.007*[#   2]+0.007*[#   6]
    |psi|^2 = 0.014
==== e(   7) =     3.80731 eV ==== 
     psi = 0.003*[#   3]+0.003*[#   7]+0.001*[#   4]+0.001*[#   8]
    |psi|^2 = 0.009
==== e(   8) =     5.74760 eV ==== 
     psi = 0.008*[#   2]+0.008*[#   6]
    |psi|^2 = 0.016
==== e(   9) =     6.41736 eV ==== 
     psi = 0.114*[#   3]+0.114*[#   7]+0.110*[#   1]+0.110*[#   5]+0.038*[#   4]
          +0.038*[#   8]
    |psi|^2 = 0.523
==== e(  10) =     6.69910 eV ==== 
     psi = 0.099*[#   3]+0.099*[#   7]+0.057*[#   1]+0.057*[#   5]+0.033*[#   4]
          +0.033*[#   8]
    |psi|^2 = 0.377
==== e(  11) =     6.83966 eV ==== 
     psi = 0.478*[#   2]+0.478*[#   6]
    |psi|^2 = 0.956
==== e(  12) =     9.69571 eV ==== 
     psi = 0.003*[#   2]+0.003*[#   6]
    |psi|^2 = 0.007
==== e(  13) =    10.08519 eV ==== 
     psi = 0.350*[#   4]+0.350*[#   8]+0.117*[#   3]+0.117*[#   7]
    |psi|^2 = 0.932
==== e(  14) =    10.85863 eV ==== 
     psi = 0.002*[#   3]+0.002*[#   7]+0.001*[#   1]+0.001*[#   5]
    |psi|^2 = 0.008
==== e(  15) =    12.56304 eV ==== 
     psi = 0.348*[#   1]+0.348*[#   5]+0.084*[#   3]+0.084*[#   7]+0.028*[#   4]
          +0.028*[#   8]
    |psi|^2 = 0.921
==== e(  16) =    14.88488 eV ==== 
     psi = 0.002*[#   2]+0.002*[#   6]
    |psi|^2 = 0.003
==== e(  17) =    16.55066 eV ==== 
 
    |psi|^2 = 0.002
==== e(  18) =    19.70281 eV ==== 
     psi = 0.007*[#   2]+0.007*[#   6]
    |psi|^2 = 0.013
==== e(  19) =    21.95758 eV ==== 
     psi = 0.010*[#   3]+0.010*[#   7]+0.009*[#   1]+0.009*[#   5]+0.003*[#   4]
          +0.003*[#   8]
    |psi|^2 = 0.044
==== e(  20) =    22.19668 eV ==== 
     psi = 0.002*[#   2]+0.002*[#   6]
    |psi|^2 = 0.005
==== e(  21) =    22.73502 eV ==== 
 
    |psi|^2 = 0.000
==== e(  22) =    23.16882 eV ==== 
     psi = 0.002*[#   1]+0.002*[#   5]+0.001*[#   3]+0.001*[#   7]
    |psi|^2 = 0.007
==== e(  23) =    23.66664 eV ==== 
 
    |psi|^2 = 0.002
==== e(  24) =    23.94233 eV ==== 
 
    |psi|^2 = 0.001
==== e(  25) =    24.30544 eV ==== 
     psi = 0.002*[#   1]+0.002*[#   5]+0.002*[#   3]+0.002*[#   7]
    |psi|^2 = 0.010
==== e(  26) =    26.16092 eV ==== 
 
    |psi|^2 = 0.000
==== e(  27) =    26.58545 eV ==== 
     psi = 0.003*[#   1]+0.003*[#   5]
    |psi|^2 = 0.007
==== e(  28) =    28.41926 eV ==== 
     psi = 0.003*[#   2]+0.003*[#   6]
    |psi|^2 = 0.007
==== e(  29) =    28.49367 eV ==== 
     psi = 0.001*[#   4]+0.001*[#   8]
    |psi|^2 = 0.003
==== e(  30) =    29.33707 eV ==== 
     psi = 0.001*[#   1]+0.001*[#   5]
    |psi|^2 = 0.003
==== e(  31) =    29.73613 eV ==== 
 
    |psi|^2 = 0.000
==== e(  32) =    30.00130 eV ==== 
 
    |psi|^2 = 0.001

 k =   0.2250000000  0.1299038106  0.0000000000
==== e(   1) =   -20.05507 eV ==== 
     psi = 0.363*[#   1]+0.363*[#   5]+0.096*[#   3]+0.096*[#   7]+0.032*[#   4]
          +0.032*[#   8]
    |psi|^2 = 0.981
==== e(   2) =    -8.51133 eV ==== 
     psi = 0.310*[#   3]+0.310*[#   7]+0.103*[#   4]+0.103*[#   8]+0.083*[#   1]
          +0.083*[#   5]
    |psi|^2 = 0.993
==== e(   3) =    -7.93157 eV ==== 
     psi = 0.487*[#   2]+0.487*[#   6]
    |psi|^2 = 0.974
==== e(   4) =    -6.53085 eV ==== 
     psi = 0.374*[#   4]+0.374*[#   8]+0.125*[#   3]+0.125*[#   7]
    |psi|^2 = 0.997
==== e(   5) =     3.05032 eV ==== 
     psi = 0.012*[#   3]+0.012*[#   7]+0.004*[#   4]+0.004*[#   8]
    |psi|^2 = 0.033
==== e(   6) =     3.88035 eV ==== 
     psi = 0.006*[#   2]+0.006*[#   6]
    |psi|^2 = 0.013
==== e(   7) =     4.15290 eV ==== 
     psi = 0.003*[#   3]+0.003*[#   7]
    |psi|^2 = 0.008
==== e(   8) =     6.00926 eV ==== 
     psi = 0.150*[#   2]+0.150*[#   6]
    |psi|^2 = 0.300
==== e(   9) =     6.28312 eV ==== 
     psi = 0.333*[#   2]+0.333*[#   6]
    |psi|^2 = 0.666
==== e(  10) =     6.39048 eV ==== 
     psi = 0.183*[#   1]+0.183*[#   5]+0.166*[#   3]+0.166*[#   7]+0.055*[#   4]
          +0.055*[#   8]
    |psi|^2 = 0.808
==== e(  11) =     6.97894 eV ==== 
     psi = 0.026*[#   3]+0.026*[#   7]+0.012*[#   1]+0.012*[#   5]+0.009*[#   4]
          +0.009*[#   8]
    |psi|^2 = 0.092
==== e(  12) =    10.02133 eV ==== 
     psi = 0.003*[#   2]+0.003*[#   6]
    |psi|^2 = 0.006
==== e(  13) =    10.85933 eV ==== 
     psi = 0.348*[#   4]+0.348*[#   8]+0.116*[#   3]+0.116*[#   7]
    |psi|^2 = 0.929
==== e(  14) =    11.19376 eV ==== 
     psi = 0.002*[#   3]+0.002*[#   7]+0.001*[#   1]+0.001*[#   5]
    |psi|^2 = 0.008
==== e(  15) =    12.98456 eV ==== 
     psi = 0.317*[#   1]+0.317*[#   5]+0.097*[#   3]+0.097*[#   7]+0.032*[#   4]
          +0.032*[#   8]
    |psi|^2 = 0.892
==== e(  16) =    15.14028 eV ==== 
     psi = 0.002*[#   2]+0.002*[#   6]
    |psi|^2 = 0.004
==== e(  17) =    16.87675 eV ==== 
 
    |psi|^2 = 0.002
==== e(  18) =    19.14347 eV ==== 
     psi = 0.009*[#   2]+0.009*[#   6]
    |psi|^2 = 0.017
==== e(  19) =    21.06798 eV ==== 
     psi = 0.010*[#   1]+0.010*[#   5]+0.009*[#   3]+0.009*[#   7]+0.003*[#   4]
          +0.003*[#   8]
    |psi|^2 = 0.045
==== e(  20) =    21.91885 eV ==== 
 
    |psi|^2 = 0.001
==== e(  21) =    22.16177 eV ==== 
     psi = 0.003*[#   3]+0.003*[#   7]+0.003*[#   1]+0.003*[#   5]+0.001*[#   4]
          +0.001*[#   8]
    |psi|^2 = 0.015
==== e(  22) =    22.28649 eV ==== 
 
    |psi|^2 = 0.000
==== e(  23) =    23.00808 eV ==== 
     psi = 0.001*[#   2]+0.001*[#   6]
    |psi|^2 = 0.003
==== e(  24) =    23.53551 eV ==== 
     psi = 0.004*[#   1]+0.004*[#   5]+0.003*[#   3]+0.003*[#   7]
    |psi|^2 = 0.016
==== e(  25) =    24.33892 eV ==== 
     psi = 0.004*[#   3]+0.004*[#   7]+0.002*[#   1]+0.002*[#   5]+0.001*[#   4]
          +0.001*[#   8]
    |psi|^2 = 0.013
==== e(  26) =    25.11692 eV ==== 
 
    |psi|^2 = 0.000
==== e(  27) =    25.59481 eV ==== 
     psi = 0.004*[#   1]+0.004*[#   5]
    |psi|^2 = 0.010
==== e(  28) =    27.94902 eV ==== 
     psi = 0.002*[#   2]+0.002*[#   6]
    |psi|^2 = 0.004
==== e(  29) =    28.02139 eV ==== 
     psi = 0.001*[#   4]+0.001*[#   8]
    |psi|^2 = 0.004
==== e(  30) =    28.83229 eV ==== 
     psi = 0.002*[#   1]+0.002*[#   5]
    |psi|^2 = 0.006
==== e(  31) =    29.38491 eV ==== 
 
    |psi|^2 = 0.001
==== e(  32) =    29.46994 eV ==== 
     psi = 0.002*[#   1]+0.002*[#   5]
    |psi|^2 = 0.006

 k =   0.2500000000  0.1443375673  0.0000000000
==== e(   1) =   -19.77907 eV ==== 
     psi = 0.347*[#   1]+0.347*[#   5]+0.108*[#   3]+0.108*[#   7]+0.036*[#   4]
          +0.036*[#   8]
    |psi|^2 = 0.981
==== e(   2) =    -9.16400 eV ==== 
     psi = 0.301*[#   3]+0.301*[#   7]+0.100*[#   4]+0.100*[#   8]+0.094*[#   1]
          +0.094*[#   5]
    |psi|^2 = 0.992
==== e(   3) =    -7.61032 eV ==== 
     psi = 0.489*[#   2]+0.489*[#   6]
    |psi|^2 = 0.979
==== e(   4) =    -6.78698 eV ==== 
     psi = 0.374*[#   4]+0.374*[#   8]+0.125*[#   3]+0.125*[#   7]
    |psi|^2 = 0.997
==== e(   5) =     3.43186 eV ==== 
     psi = 0.011*[#   3]+0.011*[#   7]+0.004*[#   4]+0.004*[#   8]
    |psi|^2 = 0.030
==== e(   6) =     4.25480 eV ==== 
     psi = 0.010*[#   2]+0.010*[#   6]
    |psi|^2 = 0.019
==== e(   7) =     4.53883 eV ==== 
     psi = 0.002*[#   3]+0.002*[#   7]
    |psi|^2 = 0.006
==== e(   8) =     5.51442 eV ==== 
     psi = 0.459*[#   2]+0.459*[#   6]
    |psi|^2 = 0.918
==== e(   9) =     6.30809 eV ==== 
     psi = 0.215*[#   1]+0.215*[#   5]+0.161*[#   3]+0.161*[#   7]+0.054*[#   4]
          +0.054*[#   8]
    |psi|^2 = 0.861
==== e(  10) =     6.49970 eV ==== 
     psi = 0.017*[#   2]+0.017*[#   6]
    |psi|^2 = 0.034
==== e(  11) =     7.34542 eV ==== 
     psi = 0.012*[#   3]+0.012*[#   7]+0.004*[#   1]+0.004*[#   5]+0.004*[#   4]
          +0.004*[#   8]
    |psi|^2 = 0.042
==== e(  12) =    10.38255 eV ==== 
     psi = 0.003*[#   2]+0.003*[#   6]
    |psi|^2 = 0.006
==== e(  13) =    11.56722 eV ==== 
     psi = 0.002*[#   3]+0.002*[#   7]+0.001*[#   1]+0.001*[#   5]
    |psi|^2 = 0.007
==== e(  14) =    11.67060 eV ==== 
     psi = 0.347*[#   4]+0.347*[#   8]+0.116*[#   3]+0.116*[#   7]
    |psi|^2 = 0.925
==== e(  15) =    13.39667 eV ==== 
     psi = 0.285*[#   1]+0.285*[#   5]+0.105*[#   3]+0.105*[#   7]+0.035*[#   4]
          +0.035*[#   8]
    |psi|^2 = 0.849
==== e(  16) =    15.39362 eV ==== 
     psi = 0.003*[#   2]+0.003*[#   6]
    |psi|^2 = 0.006
==== e(  17) =    17.23761 eV ==== 
 
    |psi|^2 = 0.002
==== e(  18) =    18.56047 eV ==== 
     psi = 0.009*[#   2]+0.009*[#   6]
    |psi|^2 = 0.019
==== e(  19) =    20.00118 eV ==== 
     psi = 0.013*[#   1]+0.013*[#   5]+0.010*[#   3]+0.010*[#   7]+0.003*[#   4]
          +0.003*[#   8]
    |psi|^2 = 0.052
==== e(  20) =    21.01943 eV ==== 
     psi = 0.005*[#   1]+0.005*[#   5]+0.005*[#   3]+0.005*[#   7]+0.002*[#   4]
          +0.002*[#   8]
    |psi|^2 = 0.024
==== e(  21) =    21.14263 eV ==== 
 
    |psi|^2 = 0.000
==== e(  22) =    21.87409 eV ==== 
 
    |psi|^2 = 0.000
==== e(  23) =    22.56831 eV ==== 
 
    |psi|^2 = 0.002
==== e(  24) =    23.28574 eV ==== 
     psi = 0.009*[#   3]+0.009*[#   7]+0.007*[#   1]+0.007*[#   5]+0.003*[#   4]
          +0.003*[#   8]
    |psi|^2 = 0.039
==== e(  25) =    24.22881 eV ==== 
     psi = 0.002*[#   1]+0.002*[#   5]
    |psi|^2 = 0.005
==== e(  26) =    24.25702 eV ==== 
 
    |psi|^2 = 0.002
==== e(  27) =    25.28959 eV ==== 
     psi = 0.005*[#   1]+0.005*[#   5]+0.005*[#   3]+0.005*[#   7]+0.002*[#   4]
          +0.002*[#   8]
    |psi|^2 = 0.022
==== e(  28) =    27.23963 eV ==== 
 
    |psi|^2 = 0.001
==== e(  29) =    27.58805 eV ==== 
     psi = 0.002*[#   4]+0.002*[#   8]
    |psi|^2 = 0.004
==== e(  30) =    28.14559 eV ==== 
     psi = 0.004*[#   1]+0.004*[#   5]+0.002*[#   3]+0.002*[#   7]
    |psi|^2 = 0.013
==== e(  31) =    28.68189 eV ==== 
 
    |psi|^2 = 0.001
==== e(  32) =    28.86771 eV ==== 
     psi = 0.001*[#   2]+0.001*[#   6]
    |psi|^2 = 0.002

 k =   0.2750000000  0.1587713240  0.0000000000
==== e(   1) =   -19.47532 eV ==== 
     psi = 0.332*[#   1]+0.332*[#   5]+0.119*[#   3]+0.119*[#   7]+0.040*[#   4]
          +0.040*[#   8]
    |psi|^2 = 0.981
==== e(   2) =    -9.82503 eV ==== 
     psi = 0.293*[#   3]+0.293*[#   7]+0.105*[#   1]+0.105*[#   5]+0.098*[#   4]
          +0.098*[#   8]
    |psi|^2 = 0.992
==== e(   3) =    -7.26000 eV ==== 
     psi = 0.491*[#   2]+0.491*[#   6]
    |psi|^2 = 0.983
==== e(   4) =    -7.02916 eV ==== 
     psi = 0.374*[#   4]+0.374*[#   8]+0.125*[#   3]+0.125*[#   7]
    |psi|^2 = 0.997
==== e(   5) =     3.85290 eV ==== 
     psi = 0.009*[#   3]+0.009*[#   7]+0.003*[#   4]+0.003*[#   8]
    |psi|^2 = 0.025
==== e(   6) =     4.58185 eV ==== 
     psi = 0.149*[#   2]+0.149*[#   6]
    |psi|^2 = 0.299
==== e(   7) =     4.93398 eV ==== 
     psi = 0.326*[#   2]+0.326*[#   6]
    |psi|^2 = 0.652
==== e(   8) =     4.96460 eV ==== 
     psi = 0.001*[#   3]+0.001*[#   7]
    |psi|^2 = 0.005
==== e(   9) =     6.21442 eV ==== 
     psi = 0.240*[#   1]+0.240*[#   5]+0.150*[#   3]+0.150*[#   7]+0.050*[#   4]
          +0.050*[#   8]
    |psi|^2 = 0.880
==== e(  10) =     6.90862 eV ==== 
     psi = 0.008*[#   2]+0.008*[#   6]
    |psi|^2 = 0.015
==== e(  11) =     7.76020 eV ==== 
     psi = 0.008*[#   3]+0.008*[#   7]+0.003*[#   4]+0.003*[#   8]+0.002*[#   1]
          +0.002*[#   5]
    |psi|^2 = 0.025
==== e(  12) =    10.77778 eV ==== 
     psi = 0.003*[#   2]+0.003*[#   6]
    |psi|^2 = 0.006
==== e(  13) =    11.97866 eV ==== 
     psi = 0.002*[#   1]+0.002*[#   5]+0.001*[#   3]+0.001*[#   7]
    |psi|^2 = 0.007
==== e(  14) =    12.50806 eV ==== 
     psi = 0.346*[#   4]+0.346*[#   8]+0.115*[#   3]+0.115*[#   7]
    |psi|^2 = 0.923
==== e(  15) =    13.76364 eV ==== 
     psi = 0.248*[#   1]+0.248*[#   5]+0.107*[#   3]+0.107*[#   7]+0.036*[#   4]
          +0.036*[#   8]
    |psi|^2 = 0.782
==== e(  16) =    15.60982 eV ==== 
     psi = 0.005*[#   2]+0.005*[#   6]
    |psi|^2 = 0.010
==== e(  17) =    17.62982 eV ==== 
 
    |psi|^2 = 0.002
==== e(  18) =    17.99876 eV ==== 
     psi = 0.008*[#   2]+0.008*[#   6]
    |psi|^2 = 0.016
==== e(  19) =    18.93768 eV ==== 
     psi = 0.016*[#   1]+0.016*[#   5]+0.013*[#   3]+0.013*[#   7]+0.004*[#   4]
          +0.004*[#   8]
    |psi|^2 = 0.067
==== e(  20) =    19.90227 eV ==== 
     psi = 0.010*[#   1]+0.010*[#   5]+0.009*[#   3]+0.009*[#   7]+0.003*[#   4]
          +0.003*[#   8]
    |psi|^2 = 0.044
==== e(  21) =    20.16127 eV ==== 
     psi = 0.001*[#   2]+0.001*[#   6]
    |psi|^2 = 0.002
==== e(  22) =    21.49897 eV ==== 
 
    |psi|^2 = 0.000
==== e(  23) =    22.07658 eV ==== 
 
    |psi|^2 = 0.000
==== e(  24) =    22.49134 eV ==== 
     psi = 0.011*[#   3]+0.011*[#   7]+0.009*[#   1]+0.009*[#   5]+0.004*[#   4]
          +0.004*[#   8]
    |psi|^2 = 0.049
==== e(  25) =    23.81713 eV ==== 
     psi = 0.001*[#   2]+0.001*[#   6]
    |psi|^2 = 0.003
==== e(  26) =    24.19853 eV ==== 
     psi = 0.006*[#   1]+0.006*[#   5]+0.003*[#   3]+0.003*[#   7]+0.001*[#   4]
          +0.001*[#   8]
    |psi|^2 = 0.020
==== e(  27) =    25.48218 eV ==== 
     psi = 0.007*[#   3]+0.007*[#   7]+0.004*[#   1]+0.004*[#   5]+0.002*[#   4]
          +0.002*[#   8]
    |psi|^2 = 0.028
==== e(  28) =    26.41800 eV ==== 
 
    |psi|^2 = 0.000
==== e(  29) =    27.19342 eV ==== 
     psi = 0.002*[#   4]+0.002*[#   8]
    |psi|^2 = 0.005
==== e(  30) =    27.24686 eV ==== 
     psi = 0.006*[#   1]+0.006*[#   5]+0.001*[#   3]+0.001*[#   7]
    |psi|^2 = 0.015
==== e(  31) =    28.23335 eV ==== 
 
    |psi|^2 = 0.003
==== e(  32) =    28.40114 eV ==== 
     psi = 0.001*[#   2]+0.001*[#   6]
    |psi|^2 = 0.003

 k =   0.3000000000  0.1732050808  0.0000000000
==== e(   1) =   -19.14429 eV ==== 
     psi = 0.318*[#   1]+0.318*[#   5]+0.129*[#   3]+0.129*[#   7]+0.043*[#   4]
          +0.043*[#   8]
    |psi|^2 = 0.981
==== e(   2) =   -10.48808 eV ==== 
     psi = 0.285*[#   3]+0.285*[#   7]+0.115*[#   1]+0.115*[#   5]+0.095*[#   4]
          +0.095*[#   8]
    |psi|^2 = 0.991
==== e(   3) =    -7.25357 eV ==== 
     psi = 0.374*[#   4]+0.374*[#   8]+0.125*[#   3]+0.125*[#   7]
    |psi|^2 = 0.997
==== e(   4) =    -6.88293 eV ==== 
     psi = 0.493*[#   2]+0.493*[#   6]
    |psi|^2 = 0.987
==== e(   5) =     4.09352 eV ==== 
     psi = 0.456*[#   2]+0.456*[#   6]
    |psi|^2 = 0.913
==== e(   6) =     4.31295 eV ==== 
     psi = 0.007*[#   3]+0.007*[#   7]+0.002*[#   4]+0.002*[#   8]
    |psi|^2 = 0.020
==== e(   7) =     5.19234 eV ==== 
     psi = 0.019*[#   2]+0.019*[#   6]
    |psi|^2 = 0.038
==== e(   8) =     5.42813 eV ==== 
     psi = 0.003*[#   1]+0.003*[#   5]
    |psi|^2 = 0.006
==== e(   9) =     6.12230 eV ==== 
     psi = 0.259*[#   1]+0.259*[#   5]+0.139*[#   3]+0.139*[#   7]+0.046*[#   4]
          +0.046*[#   8]
    |psi|^2 = 0.888
==== e(  10) =     7.36234 eV ==== 
     psi = 0.005*[#   2]+0.005*[#   6]
    |psi|^2 = 0.010
==== e(  11) =     8.21731 eV ==== 
     psi = 0.005*[#   3]+0.005*[#   7]+0.002*[#   4]+0.002*[#   8]+0.001*[#   1]
          +0.001*[#   5]
    |psi|^2 = 0.017
==== e(  12) =    11.20457 eV ==== 
     psi = 0.003*[#   2]+0.003*[#   6]
    |psi|^2 = 0.006
==== e(  13) =    12.42747 eV ==== 
     psi = 0.002*[#   1]+0.002*[#   5]+0.001*[#   3]+0.001*[#   7]
    |psi|^2 = 0.007
==== e(  14) =    13.35975 eV ==== 
     psi = 0.346*[#   4]+0.346*[#   8]+0.115*[#   3]+0.115*[#   7]
    |psi|^2 = 0.922
==== e(  15) =    14.02683 eV ==== 
     psi = 0.204*[#   1]+0.204*[#   5]+0.099*[#   3]+0.099*[#   7]+0.033*[#   4]
          +0.033*[#   8]
    |psi|^2 = 0.673
==== e(  16) =    15.71029 eV ==== 
     psi = 0.008*[#   2]+0.008*[#   6]
    |psi|^2 = 0.016
==== e(  17) =    17.50073 eV ==== 
     psi = 0.004*[#   2]+0.004*[#   6]
    |psi|^2 = 0.009
==== e(  18) =    17.88504 eV ==== 
     psi = 0.021*[#   1]+0.021*[#   5]+0.015*[#   3]+0.015*[#   7]+0.005*[#   4]
          +0.005*[#   8]
    |psi|^2 = 0.082
==== e(  19) =    18.08542 eV ==== 
     psi = 0.002*[#   1]+0.002*[#   5]+0.001*[#   3]+0.001*[#   7]
    |psi|^2 = 0.006
==== e(  20) =    18.87172 eV ==== 
     psi = 0.021*[#   1]+0.021*[#   5]+0.017*[#   3]+0.017*[#   7]+0.006*[#   4]
          +0.006*[#   8]
    |psi|^2 = 0.087
==== e(  21) =    19.22793 eV ==== 
     psi = 0.002*[#   2]+0.002*[#   6]
    |psi|^2 = 0.004
==== e(  22) =    21.16197 eV ==== 
 
    |psi|^2 = 0.000
==== e(  23) =    21.33966 eV ==== 
 
    |psi|^2 = 0.001
==== e(  24) =    21.52078 eV ==== 
     psi = 0.015*[#   3]+0.015*[#   7]+0.013*[#   1]+0.013*[#   5]+0.005*[#   4]
          +0.005*[#   8]
    |psi|^2 = 0.066
==== e(  25) =    23.69530 eV ==== 
 
    |psi|^2 = 0.002
==== e(  26) =    24.20962 eV ==== 
     psi = 0.010*[#   1]+0.010*[#   5]+0.010*[#   3]+0.010*[#   7]+0.003*[#   4]
          +0.003*[#   8]
    |psi|^2 = 0.049
==== e(  27) =    25.55066 eV ==== 
     psi = 0.006*[#   3]+0.006*[#   7]+0.003*[#   1]+0.003*[#   5]+0.002*[#   4]
          +0.002*[#   8]
    |psi|^2 = 0.021
==== e(  28) =    25.67304 eV ==== 
 
    |psi|^2 = 0.000
==== e(  29) =    26.60875 eV ==== 
     psi = 0.007*[#   1]+0.007*[#   5]+0.002*[#   3]+0.002*[#   7]
    |psi|^2 = 0.019
==== e(  30) =    26.83719 eV ==== 
     psi = 0.002*[#   4]+0.002*[#   8]
    |psi|^2 = 0.005
==== e(  31) =    27.90127 eV ==== 
     psi = 0.002*[#   3]+0.002*[#   7]+0.001*[#   1]+0.001*[#   5]
    |psi|^2 = 0.007
==== e(  32) =    27.98933 eV ==== 
     psi = 0.001*[#   2]+0.001*[#   6]
    |psi|^2 = 0.003

 k =   0.3250000000  0.1876388375  0.0000000000
==== e(   1) =   -18.78658 eV ==== 
     psi = 0.306*[#   1]+0.306*[#   5]+0.139*[#   3]+0.139*[#   7]+0.046*[#   4]
          +0.046*[#   8]
    |psi|^2 = 0.982
==== e(   2) =   -11.14781 eV ==== 
     psi = 0.278*[#   3]+0.278*[#   7]+0.125*[#   1]+0.125*[#   5]+0.093*[#   4]
          +0.093*[#   8]
    |psi|^2 = 0.990
==== e(   3) =    -7.45720 eV ==== 
     psi = 0.374*[#   4]+0.374*[#   8]+0.125*[#   3]+0.125*[#   7]
    |psi|^2 = 0.997
==== e(   4) =    -6.48236 eV ==== 
     psi = 0.495*[#   2]+0.495*[#   6]
    |psi|^2 = 0.990
==== e(   5) =     3.41077 eV ==== 
     psi = 0.467*[#   2]+0.467*[#   6]
    |psi|^2 = 0.935
==== e(   6) =     4.81075 eV ==== 
     psi = 0.005*[#   3]+0.005*[#   7]+0.002*[#   4]+0.002*[#   8]+0.001*[#   1]
          +0.001*[#   5]
    |psi|^2 = 0.015
==== e(   7) =     5.68267 eV ==== 
     psi = 0.007*[#   2]+0.007*[#   6]
    |psi|^2 = 0.015
==== e(   8) =     5.89377 eV ==== 
     psi = 0.080*[#   1]+0.080*[#   5]+0.022*[#   3]+0.022*[#   7]+0.007*[#   4]
          +0.007*[#   8]
    |psi|^2 = 0.219
==== e(   9) =     6.07373 eV ==== 
     psi = 0.200*[#   1]+0.200*[#   5]+0.105*[#   3]+0.105*[#   7]+0.035*[#   4]
          +0.035*[#   8]
    |psi|^2 = 0.681
==== e(  10) =     7.85554 eV ==== 
     psi = 0.004*[#   2]+0.004*[#   6]
    |psi|^2 = 0.008
==== e(  11) =     8.71495 eV ==== 
     psi = 0.004*[#   3]+0.004*[#   7]+0.001*[#   4]+0.001*[#   8]
    |psi|^2 = 0.011
==== e(  12) =    11.65881 eV ==== 
     psi = 0.003*[#   2]+0.003*[#   6]
    |psi|^2 = 0.006
==== e(  13) =    12.91247 eV ==== 
     psi = 0.003*[#   1]+0.003*[#   5]+0.001*[#   3]+0.001*[#   7]
    |psi|^2 = 0.009
==== e(  14) =    14.09188 eV ==== 
     psi = 0.148*[#   1]+0.148*[#   5]+0.079*[#   3]+0.079*[#   7]+0.026*[#   4]
          +0.026*[#   8]
    |psi|^2 = 0.505
==== e(  15) =    14.21152 eV ==== 
     psi = 0.346*[#   4]+0.346*[#   8]+0.115*[#   3]+0.115*[#   7]
    |psi|^2 = 0.923
==== e(  16) =    15.55741 eV ==== 
     psi = 0.011*[#   2]+0.011*[#   6]
    |psi|^2 = 0.023
==== e(  17) =    16.95460 eV ==== 
     psi = 0.024*[#   1]+0.024*[#   5]+0.017*[#   3]+0.017*[#   7]+0.006*[#   4]
          +0.006*[#   8]
    |psi|^2 = 0.093
==== e(  18) =    17.10613 eV ==== 
 
    |psi|^2 = 0.001
==== e(  19) =    17.95368 eV ==== 
     psi = 0.043*[#   1]+0.043*[#   5]+0.034*[#   3]+0.034*[#   7]+0.011*[#   4]
          +0.011*[#   8]
    |psi|^2 = 0.176
==== e(  20) =    18.45032 eV ==== 
     psi = 0.003*[#   2]+0.003*[#   6]
    |psi|^2 = 0.005
==== e(  21) =    18.54095 eV ==== 
     psi = 0.001*[#   1]+0.001*[#   5]
    |psi|^2 = 0.004
==== e(  22) =    20.58008 eV ==== 
     psi = 0.023*[#   3]+0.023*[#   7]+0.022*[#   1]+0.022*[#   5]+0.008*[#   4]
          +0.008*[#   8]
    |psi|^2 = 0.104
==== e(  23) =    20.58683 eV ==== 
     psi = 0.001*[#   2]+0.001*[#   6]
    |psi|^2 = 0.003
==== e(  24) =    20.86375 eV ==== 
 
    |psi|^2 = 0.000
==== e(  25) =    23.44977 eV ==== 
 
    |psi|^2 = 0.000
==== e(  26) =    23.97444 eV ==== 
     psi = 0.020*[#   3]+0.020*[#   7]+0.015*[#   1]+0.015*[#   5]+0.007*[#   4]
          +0.007*[#   8]
    |psi|^2 = 0.082
==== e(  27) =    25.25939 eV ==== 
 
    |psi|^2 = 0.001
==== e(  28) =    25.26963 eV ==== 
     psi = 0.006*[#   1]+0.006*[#   5]
    |psi|^2 = 0.013
==== e(  29) =    26.51894 eV ==== 
     psi = 0.002*[#   4]+0.002*[#   8]
    |psi|^2 = 0.006
==== e(  30) =    26.57076 eV ==== 
     psi = 0.006*[#   1]+0.006*[#   5]+0.003*[#   3]+0.003*[#   7]+0.001*[#   4]
          +0.001*[#   8]
    |psi|^2 = 0.021
==== e(  31) =    27.59900 eV ==== 
     psi = 0.001*[#   2]+0.001*[#   6]
    |psi|^2 = 0.002
==== e(  32) =    27.64901 eV ==== 
     psi = 0.003*[#   3]+0.003*[#   7]+0.003*[#   1]+0.003*[#   5]+0.001*[#   4]
          +0.001*[#   8]
    |psi|^2 = 0.014

 k =   0.3500000000  0.2020725942  0.0000000000
==== e(   1) =   -18.40308 eV ==== 
     psi = 0.295*[#   1]+0.295*[#   5]+0.147*[#   3]+0.147*[#   7]+0.049*[#   4]
          +0.049*[#   8]
    |psi|^2 = 0.982
==== e(   2) =   -11.79956 eV ==== 
     psi = 0.271*[#   3]+0.271*[#   7]+0.134*[#   1]+0.134*[#   5]+0.090*[#   4]
          +0.090*[#   8]
    |psi|^2 = 0.990
==== e(   3) =    -7.63766 eV ==== 
     psi = 0.374*[#   4]+0.374*[#   8]+0.125*[#   3]+0.125*[#   7]
    |psi|^2 = 0.996
==== e(   4) =    -6.06309 eV ==== 
     psi = 0.496*[#   2]+0.496*[#   6]
    |psi|^2 = 0.993
==== e(   5) =     2.72804 eV ==== 
     psi = 0.470*[#   2]+0.470*[#   6]
    |psi|^2 = 0.940
==== e(   6) =     5.34046 eV ==== 
     psi = 0.008*[#   1]+0.008*[#   5]
    |psi|^2 = 0.018
==== e(   7) =     5.93219 eV ==== 
     psi = 0.283*[#   1]+0.283*[#   5]+0.110*[#   3]+0.110*[#   7]+0.037*[#   4]
          +0.037*[#   8]
    |psi|^2 = 0.859
==== e(   8) =     6.22148 eV ==== 
     psi = 0.005*[#   2]+0.005*[#   6]
    |psi|^2 = 0.009
==== e(   9) =     6.50711 eV ==== 
     psi = 0.008*[#   3]+0.008*[#   7]+0.006*[#   1]+0.006*[#   5]+0.003*[#   4]
          +0.003*[#   8]
    |psi|^2 = 0.035
==== e(  10) =     8.38649 eV ==== 
     psi = 0.003*[#   2]+0.003*[#   6]
    |psi|^2 = 0.006
==== e(  11) =     9.25218 eV ==== 
     psi = 0.003*[#   3]+0.003*[#   7]
    |psi|^2 = 0.008
==== e(  12) =    12.13241 eV ==== 
     psi = 0.004*[#   2]+0.004*[#   6]
    |psi|^2 = 0.007
==== e(  13) =    13.42755 eV ==== 
     psi = 0.007*[#   1]+0.007*[#   5]+0.003*[#   3]+0.003*[#   7]
    |psi|^2 = 0.021
==== e(  14) =    13.86160 eV ==== 
     psi = 0.084*[#   1]+0.084*[#   5]+0.047*[#   3]+0.047*[#   7]+0.016*[#   4]
          +0.016*[#   8]
    |psi|^2 = 0.293
==== e(  15) =    15.04652 eV ==== 
     psi = 0.347*[#   4]+0.347*[#   8]+0.116*[#   3]+0.116*[#   7]
    |psi|^2 = 0.926
==== e(  16) =    15.09202 eV ==== 
     psi = 0.010*[#   2]+0.010*[#   6]
    |psi|^2 = 0.021
==== e(  17) =    16.02030 eV ==== 
     psi = 0.018*[#   1]+0.018*[#   5]+0.012*[#   3]+0.012*[#   7]+0.004*[#   4]
          +0.004*[#   8]
    |psi|^2 = 0.068
==== e(  18) =    16.70033 eV ==== 
     psi = 0.002*[#   2]+0.002*[#   6]
    |psi|^2 = 0.004
==== e(  19) =    17.31179 eV ==== 
     psi = 0.070*[#   1]+0.070*[#   5]+0.055*[#   3]+0.055*[#   7]+0.018*[#   4]
          +0.018*[#   8]
    |psi|^2 = 0.286
==== e(  20) =    17.94660 eV ==== 
 
    |psi|^2 = 0.002
==== e(  21) =    18.97994 eV ==== 
     psi = 0.003*[#   1]+0.003*[#   5]+0.003*[#   3]+0.003*[#   7]
    |psi|^2 = 0.014
==== e(  22) =    19.77378 eV ==== 
     psi = 0.036*[#   1]+0.036*[#   5]+0.036*[#   3]+0.036*[#   7]+0.012*[#   4]
          +0.012*[#   8]
    |psi|^2 = 0.167
==== e(  23) =    19.97125 eV ==== 
     psi = 0.002*[#   2]+0.002*[#   6]
    |psi|^2 = 0.005
==== e(  24) =    20.60468 eV ==== 
 
    |psi|^2 = 0.000
==== e(  25) =    22.89666 eV ==== 
 
    |psi|^2 = 0.000
==== e(  26) =    23.36891 eV ==== 
     psi = 0.026*[#   3]+0.026*[#   7]+0.018*[#   1]+0.018*[#   5]+0.009*[#   4]
          +0.009*[#   8]
    |psi|^2 = 0.107
==== e(  27) =    25.08960 eV ==== 
     psi = 0.012*[#   1]+0.012*[#   5]+0.003*[#   3]+0.003*[#   7]+0.001*[#   4]
          +0.001*[#   8]
    |psi|^2 = 0.032
==== e(  28) =    25.27459 eV ==== 
 
    |psi|^2 = 0.001
==== e(  29) =    26.23820 eV ==== 
     psi = 0.002*[#   4]+0.002*[#   8]
    |psi|^2 = 0.006
==== e(  30) =    26.70461 eV ==== 
     psi = 0.003*[#   1]+0.003*[#   5]+0.002*[#   3]+0.002*[#   7]
    |psi|^2 = 0.009
==== e(  31) =    27.19702 eV ==== 
 
    |psi|^2 = 0.002
==== e(  32) =    27.51611 eV ==== 
     psi = 0.006*[#   3]+0.006*[#   7]+0.004*[#   1]+0.004*[#   5]+0.002*[#   4]
          +0.002*[#   8]
    |psi|^2 = 0.022

 k =   0.3750000000  0.2165063509  0.0000000000
==== e(   1) =   -17.99512 eV ==== 
     psi = 0.286*[#   1]+0.286*[#   5]+0.154*[#   3]+0.154*[#   7]+0.051*[#   4]
          +0.051*[#   8]
    |psi|^2 = 0.983
==== e(   2) =   -12.43900 eV ==== 
     psi = 0.265*[#   3]+0.265*[#   7]+0.141*[#   1]+0.141*[#   5]+0.088*[#   4]
          +0.088*[#   8]
    |psi|^2 = 0.989
==== e(   3) =    -7.79309 eV ==== 
     psi = 0.374*[#   4]+0.374*[#   8]+0.125*[#   3]+0.125*[#   7]
    |psi|^2 = 0.996
==== e(   4) =    -5.63245 eV ==== 
     psi = 0.497*[#   2]+0.497*[#   6]
    |psi|^2 = 0.994
==== e(   5) =     2.06484 eV ==== 
     psi = 0.471*[#   2]+0.471*[#   6]
    |psi|^2 = 0.943
==== e(   6) =     5.77135 eV ==== 
     psi = 0.216*[#   1]+0.216*[#   5]+0.050*[#   3]+0.050*[#   7]+0.017*[#   4]
          +0.017*[#   8]
    |psi|^2 = 0.564
==== e(   7) =     6.00871 eV ==== 
     psi = 0.093*[#   1]+0.093*[#   5]+0.055*[#   3]+0.055*[#   7]+0.018*[#   4]
          +0.018*[#   8]
    |psi|^2 = 0.333
==== e(   8) =     6.80117 eV ==== 
     psi = 0.003*[#   2]+0.003*[#   6]
    |psi|^2 = 0.007
==== e(   9) =     7.09003 eV ==== 
     psi = 0.004*[#   3]+0.004*[#   7]+0.001*[#   1]+0.001*[#   5]+0.001*[#   4]
          +0.001*[#   8]
    |psi|^2 = 0.012
==== e(  10) =     8.95371 eV ==== 
     psi = 0.003*[#   2]+0.003*[#   6]
    |psi|^2 = 0.006
==== e(  11) =     9.82824 eV ==== 
     psi = 0.002*[#   3]+0.002*[#   7]
    |psi|^2 = 0.006
==== e(  12) =    12.60395 eV ==== 
     psi = 0.005*[#   2]+0.005*[#   6]
    |psi|^2 = 0.010
==== e(  13) =    13.30888 eV ==== 
     psi = 0.047*[#   1]+0.047*[#   5]+0.025*[#   3]+0.025*[#   7]+0.008*[#   4]
          +0.008*[#   8]
    |psi|^2 = 0.161
==== e(  14) =    14.00030 eV ==== 
 
    |psi|^2 = 0.004
==== e(  15) =    14.43524 eV ==== 
     psi = 0.007*[#   2]+0.007*[#   6]
    |psi|^2 = 0.013
==== e(  16) =    15.07770 eV ==== 
     psi = 0.010*[#   1]+0.010*[#   5]+0.007*[#   3]+0.007*[#   7]+0.002*[#   4]
          +0.002*[#   8]
    |psi|^2 = 0.039
==== e(  17) =    15.84367 eV ==== 
     psi = 0.349*[#   4]+0.349*[#   8]+0.116*[#   3]+0.116*[#   7]
    |psi|^2 = 0.932
==== e(  18) =    16.13134 eV ==== 
     psi = 0.004*[#   2]+0.004*[#   6]
    |psi|^2 = 0.009
==== e(  19) =    16.81700 eV ==== 
     psi = 0.067*[#   1]+0.067*[#   5]+0.054*[#   3]+0.054*[#   7]+0.018*[#   4]
          +0.018*[#   8]
    |psi|^2 = 0.278
==== e(  20) =    17.66885 eV ==== 
 
    |psi|^2 = 0.001
==== e(  21) =    19.01466 eV ==== 
     psi = 0.062*[#   3]+0.062*[#   7]+0.061*[#   1]+0.061*[#   5]+0.021*[#   4]
          +0.021*[#   8]
    |psi|^2 = 0.287
==== e(  22) =    19.59144 eV ==== 
     psi = 0.002*[#   2]+0.002*[#   6]
    |psi|^2 = 0.005
==== e(  23) =    19.59929 eV ==== 
     psi = 0.007*[#   1]+0.007*[#   5]+0.004*[#   3]+0.004*[#   7]+0.001*[#   4]
          +0.001*[#   8]
    |psi|^2 = 0.026
==== e(  24) =    20.38509 eV ==== 
 
    |psi|^2 = 0.000
==== e(  25) =    22.24713 eV ==== 
 
    |psi|^2 = 0.001
==== e(  26) =    22.62493 eV ==== 
     psi = 0.035*[#   3]+0.035*[#   7]+0.025*[#   1]+0.025*[#   5]+0.012*[#   4]
          +0.012*[#   8]
    |psi|^2 = 0.142
==== e(  27) =    24.99962 eV ==== 
     psi = 0.018*[#   1]+0.018*[#   5]+0.009*[#   3]+0.009*[#   7]+0.003*[#   4]
          +0.003*[#   8]
    |psi|^2 = 0.060
==== e(  28) =    25.45496 eV ==== 
 
    |psi|^2 = 0.001
==== e(  29) =    25.99466 eV ==== 
     psi = 0.002*[#   4]+0.002*[#   8]
    |psi|^2 = 0.006
==== e(  30) =    26.69866 eV ==== 
 
    |psi|^2 = 0.003
==== e(  31) =    26.78296 eV ==== 
 
    |psi|^2 = 0.001
==== e(  32) =    27.53398 eV ==== 
     psi = 0.005*[#   3]+0.005*[#   7]+0.003*[#   1]+0.003*[#   5]+0.002*[#   4]
          +0.002*[#   8]
    |psi|^2 = 0.018

 k =   0.4000000000  0.2309401077  0.0000000000
==== e(   1) =   -17.56486 eV ==== 
     psi = 0.278*[#   1]+0.278*[#   5]+0.160*[#   3]+0.160*[#   7]+0.053*[#   4]
          +0.053*[#   8]
    |psi|^2 = 0.984
==== e(   2) =   -13.06161 eV ==== 
     psi = 0.260*[#   3]+0.260*[#   7]+0.148*[#   1]+0.148*[#   5]+0.087*[#   4]
          +0.087*[#   8]
    |psi|^2 = 0.988
==== e(   3) =    -7.92204 eV ==== 
     psi = 0.374*[#   4]+0.374*[#   8]+0.125*[#   3]+0.125*[#   7]
    |psi|^2 = 0.996
==== e(   4) =    -5.20215 eV ==== 
     psi = 0.498*[#   2]+0.498*[#   6]
    |psi|^2 = 0.996
==== e(   5) =     1.43831 eV ==== 
     psi = 0.472*[#   2]+0.472*[#   6]
    |psi|^2 = 0.945
==== e(   6) =     5.76168 eV ==== 
     psi = 0.315*[#   1]+0.315*[#   5]+0.085*[#   3]+0.085*[#   7]+0.028*[#   4]
          +0.028*[#   8]
    |psi|^2 = 0.857
==== e(   7) =     6.57130 eV ==== 
     psi = 0.011*[#   3]+0.011*[#   7]+0.006*[#   1]+0.006*[#   5]+0.004*[#   4]
          +0.004*[#   8]
    |psi|^2 = 0.043
==== e(   8) =     7.41968 eV ==== 
     psi = 0.003*[#   2]+0.003*[#   6]
    |psi|^2 = 0.005
==== e(   9) =     7.71748 eV ==== 
     psi = 0.002*[#   3]+0.002*[#   7]
    |psi|^2 = 0.006
==== e(  10) =     9.55515 eV ==== 
     psi = 0.003*[#   2]+0.003*[#   6]
    |psi|^2 = 0.005
==== e(  11) =    10.44220 eV ==== 
     psi = 0.001*[#   3]+0.001*[#   7]
    |psi|^2 = 0.005
==== e(  12) =    12.59500 eV ==== 
     psi = 0.023*[#   1]+0.023*[#   5]+0.012*[#   3]+0.012*[#   7]+0.004*[#   4]
          +0.004*[#   8]
    |psi|^2 = 0.079
==== e(  13) =    12.95830 eV ==== 
     psi = 0.009*[#   2]+0.009*[#   6]
    |psi|^2 = 0.018
==== e(  14) =    13.79517 eV ==== 
     psi = 0.001*[#   2]+0.001*[#   6]
    |psi|^2 = 0.002
==== e(  15) =    14.13393 eV ==== 
     psi = 0.006*[#   1]+0.006*[#   5]+0.004*[#   3]+0.004*[#   7]+0.001*[#   4]
          +0.001*[#   8]
    |psi|^2 = 0.023
==== e(  16) =    14.58591 eV ==== 
     psi = 0.002*[#   1]+0.002*[#   5]+0.002*[#   3]+0.002*[#   7]
    |psi|^2 = 0.009
==== e(  17) =    15.47259 eV ==== 
     psi = 0.004*[#   2]+0.004*[#   6]
    |psi|^2 = 0.009
==== e(  18) =    16.26077 eV ==== 
     psi = 0.042*[#   1]+0.042*[#   5]+0.033*[#   3]+0.033*[#   7]+0.011*[#   4]
          +0.011*[#   8]
    |psi|^2 = 0.171
==== e(  19) =    16.57605 eV ==== 
     psi = 0.353*[#   4]+0.353*[#   8]+0.118*[#   3]+0.118*[#   7]
    |psi|^2 = 0.941
==== e(  20) =    17.40520 eV ==== 
     psi = 0.003*[#   2]+0.003*[#   6]
    |psi|^2 = 0.005
==== e(  21) =    18.68396 eV ==== 
     psi = 0.092*[#   3]+0.092*[#   7]+0.090*[#   1]+0.090*[#   5]+0.031*[#   4]
          +0.031*[#   8]
    |psi|^2 = 0.424
==== e(  22) =    19.43095 eV ==== 
 
    |psi|^2 = 0.002
==== e(  23) =    20.03528 eV ==== 
     psi = 0.004*[#   1]+0.004*[#   5]
    |psi|^2 = 0.009
==== e(  24) =    20.20509 eV ==== 
 
    |psi|^2 = 0.000
==== e(  25) =    21.70293 eV ==== 
     psi = 0.001*[#   2]+0.001*[#   6]
    |psi|^2 = 0.002
==== e(  26) =    21.94071 eV ==== 
     psi = 0.049*[#   3]+0.049*[#   7]+0.036*[#   1]+0.036*[#   5]+0.016*[#   4]
          +0.016*[#   8]
    |psi|^2 = 0.202
==== e(  27) =    24.88519 eV ==== 
     psi = 0.023*[#   1]+0.023*[#   5]+0.016*[#   3]+0.016*[#   7]+0.005*[#   4]
          +0.005*[#   8]
    |psi|^2 = 0.087
==== e(  28) =    25.44008 eV ==== 
 
    |psi|^2 = 0.000
==== e(  29) =    25.78845 eV ==== 
     psi = 0.002*[#   4]+0.002*[#   8]
    |psi|^2 = 0.006
==== e(  30) =    26.54322 eV ==== 
 
    |psi|^2 = 0.000
==== e(  31) =    26.56559 eV ==== 
     psi = 0.001*[#   1]+0.001*[#   5]+0.001*[#   3]+0.001*[#   7]
    |psi|^2 = 0.006
==== e(  32) =    27.35033 eV ==== 
 
    |psi|^2 = 0.001

 k =   0.4250000000  0.2453738644  0.0000000000
==== e(   1) =   -17.11653 eV ==== 
     psi = 0.274*[#   1]+0.274*[#   5]+0.164*[#   3]+0.164*[#   7]+0.055*[#   4]
          +0.055*[#   8]
    |psi|^2 = 0.985
==== e(   2) =   -13.66129 eV ==== 
     psi = 0.257*[#   3]+0.257*[#   7]+0.151*[#   1]+0.151*[#   5]+0.086*[#   4]
          +0.086*[#   8]
    |psi|^2 = 0.987
==== e(   3) =    -8.02337 eV ==== 
     psi = 0.373*[#   4]+0.373*[#   8]+0.124*[#   3]+0.124*[#   7]
    |psi|^2 = 0.996
==== e(   4) =    -4.79159 eV ==== 
     psi = 0.498*[#   2]+0.498*[#   6]
    |psi|^2 = 0.996
==== e(   5) =     0.87166 eV ==== 
     psi = 0.473*[#   2]+0.473*[#   6]
    |psi|^2 = 0.947
==== e(   6) =     5.71663 eV ==== 
     psi = 0.329*[#   1]+0.329*[#   5]+0.084*[#   3]+0.084*[#   7]+0.028*[#   4]
          +0.028*[#   8]
    |psi|^2 = 0.881
==== e(   7) =     7.21888 eV ==== 
     psi = 0.006*[#   3]+0.006*[#   7]+0.002*[#   4]+0.002*[#   8]+0.002*[#   1]
          +0.002*[#   5]
    |psi|^2 = 0.019
==== e(   8) =     8.07548 eV ==== 
     psi = 0.002*[#   2]+0.002*[#   6]
    |psi|^2 = 0.005
==== e(   9) =     8.38590 eV ==== 
     psi = 0.001*[#   3]+0.001*[#   7]
    |psi|^2 = 0.004
==== e(  10) =    10.18697 eV ==== 
     psi = 0.003*[#   2]+0.003*[#   6]
    |psi|^2 = 0.006
==== e(  11) =    11.09177 eV ==== 
     psi = 0.001*[#   1]+0.001*[#   5]+0.001*[#   3]+0.001*[#   7]
    |psi|^2 = 0.005
==== e(  12) =    11.80270 eV ==== 
     psi = 0.012*[#   1]+0.012*[#   5]+0.006*[#   3]+0.006*[#   7]+0.002*[#   4]
          +0.002*[#   8]
    |psi|^2 = 0.039
==== e(  13) =    12.61352 eV ==== 
     psi = 0.007*[#   2]+0.007*[#   6]
    |psi|^2 = 0.014
==== e(  14) =    13.21196 eV ==== 
     psi = 0.004*[#   1]+0.004*[#   5]+0.002*[#   3]+0.002*[#   7]
    |psi|^2 = 0.013
==== e(  15) =    13.74632 eV ==== 
     psi = 0.003*[#   2]+0.003*[#   6]
    |psi|^2 = 0.006
==== e(  16) =    14.84228 eV ==== 
     psi = 0.002*[#   2]+0.002*[#   6]
    |psi|^2 = 0.004
==== e(  17) =    15.19387 eV ==== 
     psi = 0.006*[#   1]+0.006*[#   5]+0.005*[#   3]+0.005*[#   7]+0.002*[#   4]
          +0.002*[#   8]
    |psi|^2 = 0.025
==== e(  18) =    15.57738 eV ==== 
     psi = 0.019*[#   1]+0.019*[#   5]+0.015*[#   3]+0.015*[#   7]+0.005*[#   4]
          +0.005*[#   8]
    |psi|^2 = 0.078
==== e(  19) =    17.11223 eV ==== 
     psi = 0.005*[#   2]+0.005*[#   6]
    |psi|^2 = 0.009
==== e(  20) =    17.21053 eV ==== 
     psi = 0.357*[#   4]+0.357*[#   8]+0.119*[#   3]+0.119*[#   7]
    |psi|^2 = 0.952
==== e(  21) =    18.45973 eV ==== 
     psi = 0.089*[#   3]+0.089*[#   7]+0.086*[#   1]+0.086*[#   5]+0.030*[#   4]
          +0.030*[#   8]
    |psi|^2 = 0.410
==== e(  22) =    19.30598 eV ==== 
 
    |psi|^2 = 0.000
==== e(  23) =    20.06505 eV ==== 
 
    |psi|^2 = 0.000
==== e(  24) =    20.39038 eV ==== 
     psi = 0.021*[#   3]+0.021*[#   7]+0.018*[#   1]+0.018*[#   5]+0.007*[#   4]
          +0.007*[#   8]
    |psi|^2 = 0.093
==== e(  25) =    21.42297 eV ==== 
     psi = 0.001*[#   2]+0.001*[#   6]
    |psi|^2 = 0.003
==== e(  26) =    21.50375 eV ==== 
     psi = 0.056*[#   3]+0.056*[#   7]+0.044*[#   1]+0.044*[#   5]+0.019*[#   4]
          +0.019*[#   8]
    |psi|^2 = 0.239
==== e(  27) =    24.70569 eV ==== 
     psi = 0.026*[#   1]+0.026*[#   5]+0.023*[#   3]+0.023*[#   7]+0.008*[#   4]
          +0.008*[#   8]
    |psi|^2 = 0.112
==== e(  28) =    25.01626 eV ==== 
 
    |psi|^2 = 0.000
==== e(  29) =    25.62083 eV ==== 
     psi = 0.002*[#   4]+0.002*[#   8]
    |psi|^2 = 0.005
==== e(  30) =    26.38171 eV ==== 
     psi = 0.003*[#   1]+0.003*[#   5]+0.002*[#   3]+0.002*[#   7]
    |psi|^2 = 0.012
==== e(  31) =    26.63584 eV ==== 
 
    |psi|^2 = 0.000
==== e(  32) =    27.00770 eV ==== 
     psi = 0.007*[#   1]+0.007*[#   5]+0.003*[#   3]+0.003*[#   7]
    |psi|^2 = 0.022

 k =   0.4500000000  0.2598076211  0.0000000000
==== e(   1) =   -16.66074 eV ==== 
     psi = 0.275*[#   1]+0.275*[#   5]+0.164*[#   3]+0.164*[#   7]+0.055*[#   4]
          +0.055*[#   8]
    |psi|^2 = 0.987
==== e(   2) =   -14.22614 eV ==== 
     psi = 0.258*[#   3]+0.258*[#   7]+0.149*[#   1]+0.149*[#   5]+0.086*[#   4]
          +0.086*[#   8]
    |psi|^2 = 0.985
==== e(   3) =    -8.09632 eV ==== 
     psi = 0.373*[#   4]+0.373*[#   8]+0.124*[#   3]+0.124*[#   7]
    |psi|^2 = 0.996
==== e(   4) =    -4.43321 eV ==== 
     psi = 0.498*[#   2]+0.498*[#   6]
    |psi|^2 = 0.997
==== e(   5) =     0.39992 eV ==== 
     psi = 0.474*[#   2]+0.474*[#   6]
    |psi|^2 = 0.948
==== e(   6) =     5.68105 eV ==== 
     psi = 0.336*[#   1]+0.336*[#   5]+0.081*[#   3]+0.081*[#   7]+0.027*[#   4]
          +0.027*[#   8]
    |psi|^2 = 0.888
==== e(   7) =     7.90688 eV ==== 
     psi = 0.004*[#   3]+0.004*[#   7]+0.001*[#   4]+0.001*[#   8]
    |psi|^2 = 0.011
==== e(   8) =     8.76661 eV ==== 
     psi = 0.002*[#   2]+0.002*[#   6]
    |psi|^2 = 0.005
==== e(   9) =     9.09428 eV ==== 
 
    |psi|^2 = 0.003
==== e(  10) =    10.83529 eV ==== 
     psi = 0.004*[#   2]+0.004*[#   6]
    |psi|^2 = 0.008
==== e(  11) =    10.98403 eV ==== 
     psi = 0.007*[#   1]+0.007*[#   5]+0.003*[#   3]+0.003*[#   7]+0.001*[#   4]
          +0.001*[#   8]
    |psi|^2 = 0.022
==== e(  12) =    11.78295 eV ==== 
     psi = 0.001*[#   1]+0.001*[#   5]+0.001*[#   3]+0.001*[#   7]
    |psi|^2 = 0.005
==== e(  13) =    11.86958 eV ==== 
     psi = 0.004*[#   2]+0.004*[#   6]
    |psi|^2 = 0.007
==== e(  14) =    12.31789 eV ==== 
     psi = 0.002*[#   1]+0.002*[#   5]+0.001*[#   3]+0.001*[#   7]
    |psi|^2 = 0.007
==== e(  15) =    13.64753 eV ==== 
     psi = 0.006*[#   2]+0.006*[#   6]
    |psi|^2 = 0.012
==== e(  16) =    14.62524 eV ==== 
 
    |psi|^2 = 0.001
==== e(  17) =    14.80383 eV ==== 
     psi = 0.012*[#   1]+0.012*[#   5]+0.009*[#   3]+0.009*[#   7]+0.003*[#   4]
          +0.003*[#   8]
    |psi|^2 = 0.048
==== e(  18) =    15.84193 eV ==== 
     psi = 0.006*[#   1]+0.006*[#   5]+0.005*[#   3]+0.005*[#   7]+0.002*[#   4]
          +0.002*[#   8]
    |psi|^2 = 0.024
==== e(  19) =    16.82385 eV ==== 
     psi = 0.004*[#   2]+0.004*[#   6]
    |psi|^2 = 0.008
==== e(  20) =    17.70787 eV ==== 
     psi = 0.361*[#   4]+0.361*[#   8]+0.120*[#   3]+0.120*[#   7]
    |psi|^2 = 0.963
==== e(  21) =    18.16815 eV ==== 
     psi = 0.061*[#   3]+0.061*[#   7]+0.059*[#   1]+0.059*[#   5]+0.020*[#   4]
          +0.020*[#   8]
    |psi|^2 = 0.282
==== e(  22) =    19.09028 eV ==== 
 
    |psi|^2 = 0.002
==== e(  23) =    19.96489 eV ==== 
 
    |psi|^2 = 0.000
==== e(  24) =    20.43966 eV ==== 
     psi = 0.088*[#   3]+0.088*[#   7]+0.066*[#   1]+0.066*[#   5]+0.029*[#   4]
          +0.029*[#   8]
    |psi|^2 = 0.368
==== e(  25) =    21.46206 eV ==== 
     psi = 0.001*[#   2]+0.001*[#   6]
    |psi|^2 = 0.002
==== e(  26) =    21.55750 eV ==== 
     psi = 0.027*[#   1]+0.027*[#   5]+0.027*[#   3]+0.027*[#   7]+0.009*[#   4]
          +0.009*[#   8]
    |psi|^2 = 0.127
==== e(  27) =    24.45435 eV ==== 
     psi = 0.030*[#   3]+0.030*[#   7]+0.026*[#   1]+0.026*[#   5]+0.010*[#   4]
          +0.010*[#   8]
    |psi|^2 = 0.131
==== e(  28) =    24.46008 eV ==== 
 
    |psi|^2 = 0.000
==== e(  29) =    25.49489 eV ==== 
     psi = 0.001*[#   4]+0.001*[#   8]
    |psi|^2 = 0.004
==== e(  30) =    26.16088 eV ==== 
     psi = 0.008*[#   1]+0.008*[#   5]+0.002*[#   3]+0.002*[#   7]
    |psi|^2 = 0.023
==== e(  31) =    26.65172 eV ==== 
     psi = 0.007*[#   1]+0.007*[#   5]
    |psi|^2 = 0.017
==== e(  32) =    26.75891 eV ==== 
 
    |psi|^2 = 0.001

 k =   0.4750000000  0.2742413779  0.0000000000
==== e(   1) =   -16.23452 eV ==== 
     psi = 0.291*[#   1]+0.291*[#   5]+0.153*[#   3]+0.153*[#   7]+0.051*[#   4]
          +0.051*[#   8]
    |psi|^2 = 0.990
==== e(   2) =   -14.71818 eV ==== 
     psi = 0.268*[#   3]+0.268*[#   7]+0.133*[#   1]+0.133*[#   5]+0.089*[#   4]
          +0.089*[#   8]
    |psi|^2 = 0.982
==== e(   3) =    -8.14030 eV ==== 
     psi = 0.373*[#   4]+0.373*[#   8]+0.124*[#   3]+0.124*[#   7]
    |psi|^2 = 0.996
==== e(   4) =    -4.17716 eV ==== 
     psi = 0.499*[#   2]+0.499*[#   6]
    |psi|^2 = 0.998
==== e(   5) =     0.07513 eV ==== 
     psi = 0.474*[#   2]+0.474*[#   6]
    |psi|^2 = 0.949
==== e(   6) =     5.65897 eV ==== 
     psi = 0.340*[#   1]+0.340*[#   5]+0.079*[#   3]+0.079*[#   7]+0.026*[#   4]
          +0.026*[#   8]
    |psi|^2 = 0.891
==== e(   7) =     8.62983 eV ==== 
     psi = 0.002*[#   3]+0.002*[#   7]+0.001*[#   1]+0.001*[#   5]
    |psi|^2 = 0.008
==== e(   8) =     9.48893 eV ==== 
     psi = 0.003*[#   2]+0.003*[#   6]
    |psi|^2 = 0.006
==== e(   9) =     9.83953 eV ==== 
 
    |psi|^2 = 0.003
==== e(  10) =    10.18282 eV ==== 
     psi = 0.003*[#   1]+0.003*[#   5]+0.002*[#   3]+0.002*[#   7]
    |psi|^2 = 0.012
==== e(  11) =    11.00197 eV ==== 
     psi = 0.005*[#   2]+0.005*[#   6]
    |psi|^2 = 0.010
==== e(  12) =    11.45552 eV ==== 
     psi = 0.001*[#   1]+0.001*[#   5]
    |psi|^2 = 0.005
==== e(  13) =    11.58832 eV ==== 
     psi = 0.002*[#   2]+0.002*[#   6]
    |psi|^2 = 0.004
==== e(  14) =    12.50269 eV ==== 
     psi = 0.002*[#   1]+0.002*[#   5]+0.001*[#   3]+0.001*[#   7]
    |psi|^2 = 0.009
==== e(  15) =    13.04997 eV ==== 
     psi = 0.004*[#   2]+0.004*[#   6]
    |psi|^2 = 0.007
==== e(  16) =    14.02463 eV ==== 
     psi = 0.007*[#   1]+0.007*[#   5]+0.004*[#   3]+0.004*[#   7]+0.001*[#   4]
          +0.001*[#   8]
    |psi|^2 = 0.025
==== e(  17) =    14.87740 eV ==== 
     psi = 0.004*[#   2]+0.004*[#   6]
    |psi|^2 = 0.009
==== e(  18) =    16.48480 eV ==== 
     psi = 0.012*[#   1]+0.012*[#   5]+0.011*[#   3]+0.011*[#   7]+0.004*[#   4]
          +0.004*[#   8]
    |psi|^2 = 0.053
==== e(  19) =    16.57564 eV ==== 
     psi = 0.002*[#   2]+0.002*[#   6]
    |psi|^2 = 0.004
==== e(  20) =    17.71612 eV ==== 
     psi = 0.031*[#   1]+0.031*[#   3]+0.031*[#   5]+0.031*[#   7]+0.010*[#   4]
          +0.010*[#   8]
    |psi|^2 = 0.147
==== e(  21) =    18.02800 eV ==== 
     psi = 0.365*[#   4]+0.365*[#   8]+0.122*[#   3]+0.122*[#   7]
    |psi|^2 = 0.973
==== e(  22) =    18.87338 eV ==== 
     psi = 0.002*[#   2]+0.002*[#   6]
    |psi|^2 = 0.004
==== e(  23) =    19.90475 eV ==== 
 
    |psi|^2 = 0.000
==== e(  24) =    20.36519 eV ==== 
     psi = 0.136*[#   3]+0.136*[#   7]+0.101*[#   1]+0.101*[#   5]+0.045*[#   4]
          +0.045*[#   8]
    |psi|^2 = 0.565
==== e(  25) =    21.66743 eV ==== 
 
    |psi|^2 = 0.001
==== e(  26) =    21.85468 eV ==== 
     psi = 0.016*[#   1]+0.016*[#   5]+0.007*[#   3]+0.007*[#   7]+0.002*[#   4]
          +0.002*[#   8]
    |psi|^2 = 0.050
==== e(  27) =    23.98491 eV ==== 
 
    |psi|^2 = 0.001
==== e(  28) =    24.18459 eV ==== 
     psi = 0.037*[#   3]+0.037*[#   7]+0.025*[#   1]+0.025*[#   5]+0.012*[#   4]
          +0.012*[#   8]
    |psi|^2 = 0.147
==== e(  29) =    25.41566 eV ==== 
 
    |psi|^2 = 0.002
==== e(  30) =    25.96292 eV ==== 
     psi = 0.015*[#   1]+0.015*[#   5]+0.002*[#   3]+0.002*[#   7]
    |psi|^2 = 0.035
==== e(  31) =    26.48290 eV ==== 
     psi = 0.006*[#   1]+0.006*[#   5]
    |psi|^2 = 0.012
==== e(  32) =    26.80007 eV ==== 
 
    |psi|^2 = 0.001

 k =   0.5000000000  0.2886751346  0.0000000000
==== e(   1) =   -16.00851 eV ==== 
     psi = 0.315*[#   1]+0.315*[#   5]+0.136*[#   3]+0.136*[#   7]+0.045*[#   4]
          +0.045*[#   8]
    |psi|^2 = 0.993
==== e(   2) =   -14.96617 eV ==== 
     psi = 0.286*[#   3]+0.286*[#   7]+0.108*[#   1]+0.108*[#   5]+0.095*[#   4]
          +0.095*[#   8]
    |psi|^2 = 0.979
==== e(   3) =    -8.15500 eV ==== 
     psi = 0.373*[#   4]+0.373*[#   8]+0.124*[#   3]+0.124*[#   7]
    |psi|^2 = 0.996
==== e(   4) =    -4.08211 eV ==== 
     psi = 0.499*[#   2]+0.499*[#   6]
    |psi|^2 = 0.998
==== e(   5) =    -0.04293 eV ==== 
     psi = 0.474*[#   2]+0.474*[#   6]
    |psi|^2 = 0.949
==== e(   6) =     5.65151 eV ==== 
     psi = 0.341*[#   1]+0.341*[#   5]+0.078*[#   3]+0.078*[#   7]+0.026*[#   4]
          +0.026*[#   8]
    |psi|^2 = 0.891
==== e(   7) =     9.32170 eV ==== 
     psi = 0.004*[#   1]+0.004*[#   5]
    |psi|^2 = 0.008
==== e(   8) =     9.45758 eV ==== 
     psi = 0.003*[#   3]+0.003*[#   7]+0.001*[#   4]+0.001*[#   8]
    |psi|^2 = 0.009
==== e(   9) =    10.15245 eV ==== 
     psi = 0.006*[#   2]+0.006*[#   6]
    |psi|^2 = 0.013
==== e(  10) =    10.34304 eV ==== 
 
    |psi|^2 = 0.000
==== e(  11) =    10.61890 eV ==== 
     psi = 0.001*[#   1]+0.001*[#   5]
    |psi|^2 = 0.004
==== e(  12) =    10.64354 eV ==== 
 
    |psi|^2 = 0.002
==== e(  13) =    12.07197 eV ==== 
     psi = 0.006*[#   2]+0.006*[#   6]
    |psi|^2 = 0.012
==== e(  14) =    12.53867 eV ==== 
 
    |psi|^2 = 0.000
==== e(  15) =    13.22187 eV ==== 
     psi = 0.007*[#   1]+0.007*[#   5]+0.004*[#   3]+0.004*[#   7]+0.001*[#   4]
          +0.001*[#   8]
    |psi|^2 = 0.025
==== e(  16) =    13.28286 eV ==== 
 
    |psi|^2 = 0.004
==== e(  17) =    15.02399 eV ==== 
     psi = 0.006*[#   2]+0.006*[#   6]
    |psi|^2 = 0.013
==== e(  18) =    16.46181 eV ==== 
 
    |psi|^2 = 0.000
==== e(  19) =    17.02905 eV ==== 
     psi = 0.034*[#   3]+0.034*[#   7]+0.032*[#   1]+0.032*[#   5]+0.011*[#   4]
          +0.011*[#   8]
    |psi|^2 = 0.154
==== e(  20) =    17.22754 eV ==== 
     psi = 0.003*[#   1]+0.003*[#   5]
    |psi|^2 = 0.007
==== e(  21) =    18.13886 eV ==== 
     psi = 0.366*[#   4]+0.366*[#   8]+0.122*[#   3]+0.122*[#   7]
    |psi|^2 = 0.976
==== e(  22) =    18.78501 eV ==== 
     psi = 0.003*[#   2]+0.003*[#   6]
    |psi|^2 = 0.006
==== e(  23) =    19.88473 eV ==== 
 
    |psi|^2 = 0.000
==== e(  24) =    20.33914 eV ==== 
     psi = 0.151*[#   3]+0.151*[#   7]+0.111*[#   1]+0.111*[#   5]+0.050*[#   4]
          +0.050*[#   8]
    |psi|^2 = 0.624
==== e(  25) =    21.78772 eV ==== 
 
    |psi|^2 = 0.000
==== e(  26) =    22.00605 eV ==== 
     psi = 0.013*[#   1]+0.013*[#   5]
    |psi|^2 = 0.027
==== e(  27) =    23.78250 eV ==== 
 
    |psi|^2 = 0.001
==== e(  28) =    24.05377 eV ==== 
     psi = 0.040*[#   3]+0.040*[#   7]+0.024*[#   1]+0.024*[#   5]+0.013*[#   4]
          +0.013*[#   8]
    |psi|^2 = 0.156
==== e(  29) =    25.38846 eV ==== 
 
    |psi|^2 = 0.001
==== e(  30) =    25.88696 eV ==== 
     psi = 0.017*[#   1]+0.017*[#   5]+0.002*[#   3]+0.002*[#   7]
    |psi|^2 = 0.040
==== e(  31) =    26.43565 eV ==== 
     psi = 0.005*[#   1]+0.005*[#   5]
    |psi|^2 = 0.011
==== e(  32) =    26.80592 eV ==== 
 
    |psi|^2 = 0.001

 k =   0.5138888889  0.2646188734  0.0000000000
==== e(   1) =   -15.99678 eV ==== 
     psi = 0.315*[#   1]+0.315*[#   5]+0.136*[#   3]+0.136*[#   7]+0.046*[#   4]
          +0.046*[#   8]
    |psi|^2 = 0.993
==== e(   2) =   -14.95458 eV ==== 
     psi = 0.286*[#   3]+0.286*[#   7]+0.108*[#   1]+0.108*[#   5]+0.095*[#   4]
          +0.095*[#   8]
    |psi|^2 = 0.979
==== e(   3) =    -8.21649 eV ==== 
     psi = 0.372*[#   4]+0.372*[#   8]+0.124*[#   3]+0.124*[#   7]+0.002*[#   1]
          +0.002*[#   5]
    |psi|^2 = 0.996
==== e(   4) =    -4.06545 eV ==== 
     psi = 0.499*[#   2]+0.499*[#   6]
    |psi|^2 = 0.998
==== e(   5) =    -0.04687 eV ==== 
     psi = 0.475*[#   2]+0.475*[#   6]
    |psi|^2 = 0.949
==== e(   6) =     5.73461 eV ==== 
     psi = 0.339*[#   1]+0.339*[#   5]+0.079*[#   3]+0.079*[#   7]+0.027*[#   4]
          +0.027*[#   8]
    |psi|^2 = 0.890
==== e(   7) =     9.33808 eV ==== 
     psi = 0.004*[#   1]+0.004*[#   5]
    |psi|^2 = 0.009
==== e(   8) =     9.47495 eV ==== 
     psi = 0.003*[#   3]+0.003*[#   7]+0.001*[#   4]+0.001*[#   8]
    |psi|^2 = 0.009
==== e(   9) =    10.15506 eV ==== 
     psi = 0.007*[#   2]+0.007*[#   6]
    |psi|^2 = 0.013
==== e(  10) =    10.36187 eV ==== 
 
    |psi|^2 = 0.000
==== e(  11) =    10.63704 eV ==== 
     psi = 0.001*[#   1]+0.001*[#   5]
    |psi|^2 = 0.004
==== e(  12) =    10.66193 eV ==== 
 
    |psi|^2 = 0.002
==== e(  13) =    12.06530 eV ==== 
     psi = 0.006*[#   2]+0.006*[#   6]
    |psi|^2 = 0.012
==== e(  14) =    12.55740 eV ==== 
 
    |psi|^2 = 0.000
==== e(  15) =    13.23612 eV ==== 
     psi = 0.007*[#   1]+0.007*[#   5]+0.004*[#   3]+0.004*[#   7]+0.002*[#   4]
          +0.002*[#   8]
    |psi|^2 = 0.026
==== e(  16) =    13.29954 eV ==== 
 
    |psi|^2 = 0.004
==== e(  17) =    14.97372 eV ==== 
     psi = 0.006*[#   2]+0.006*[#   6]
    |psi|^2 = 0.012
==== e(  18) =    16.48024 eV ==== 
 
    |psi|^2 = 0.000
==== e(  19) =    16.98972 eV ==== 
     psi = 0.040*[#   3]+0.040*[#   7]+0.036*[#   1]+0.036*[#   5]+0.028*[#   4]
          +0.028*[#   8]
    |psi|^2 = 0.207
==== e(  20) =    17.23886 eV ==== 
     psi = 0.003*[#   1]+0.003*[#   5]
    |psi|^2 = 0.007
==== e(  21) =    18.15176 eV ==== 
     psi = 0.339*[#   4]+0.339*[#   8]+0.113*[#   3]+0.113*[#   7]+0.002*[#   1]
          +0.002*[#   5]
    |psi|^2 = 0.908
==== e(  22) =    18.58638 eV ==== 
     psi = 0.002*[#   2]+0.002*[#   6]
    |psi|^2 = 0.004
==== e(  23) =    20.15231 eV ==== 
     psi = 0.001*[#   2]+0.001*[#   6]
    |psi|^2 = 0.002
==== e(  24) =    20.39449 eV ==== 
     psi = 0.153*[#   3]+0.153*[#   7]+0.106*[#   1]+0.106*[#   5]+0.060*[#   4]
          +0.060*[#   8]
    |psi|^2 = 0.638
==== e(  25) =    21.80556 eV ==== 
 
    |psi|^2 = 0.000
==== e(  26) =    21.98621 eV ==== 
     psi = 0.014*[#   1]+0.014*[#   5]
    |psi|^2 = 0.029
==== e(  27) =    23.85308 eV ==== 
 
    |psi|^2 = 0.001
==== e(  28) =    24.06703 eV ==== 
     psi = 0.040*[#   3]+0.040*[#   7]+0.024*[#   1]+0.024*[#   5]+0.014*[#   4]
          +0.014*[#   8]
    |psi|^2 = 0.156
==== e(  29) =    24.43906 eV ==== 
     psi = 0.002*[#   1]+0.002*[#   5]
    |psi|^2 = 0.006
==== e(  30) =    25.69124 eV ==== 
     psi = 0.002*[#   1]+0.002*[#   5]
    |psi|^2 = 0.005
==== e(  31) =    25.77476 eV ==== 
 
    |psi|^2 = 0.000
==== e(  32) =    26.13395 eV ==== 
     psi = 0.018*[#   1]+0.018*[#   5]+0.002*[#   3]+0.002*[#   7]
    |psi|^2 = 0.041

 k =   0.5277777778  0.2405626122  0.0000000000
==== e(   1) =   -15.96166 eV ==== 
     psi = 0.312*[#   1]+0.312*[#   5]+0.136*[#   3]+0.136*[#   7]+0.048*[#   4]
          +0.048*[#   8]
    |psi|^2 = 0.993
==== e(   2) =   -14.91995 eV ==== 
     psi = 0.285*[#   3]+0.285*[#   7]+0.109*[#   1]+0.109*[#   5]+0.095*[#   4]
          +0.095*[#   8]
    |psi|^2 = 0.979
==== e(   3) =    -8.39608 eV ==== 
     psi = 0.367*[#   4]+0.367*[#   8]+0.123*[#   3]+0.123*[#   7]+0.007*[#   1]
          +0.007*[#   5]
    |psi|^2 = 0.995
==== e(   4) =    -4.01552 eV ==== 
     psi = 0.499*[#   2]+0.499*[#   6]
    |psi|^2 = 0.998
==== e(   5) =    -0.05950 eV ==== 
     psi = 0.476*[#   2]+0.476*[#   6]
    |psi|^2 = 0.951
==== e(   6) =     5.97866 eV ==== 
     psi = 0.332*[#   1]+0.332*[#   5]+0.080*[#   3]+0.080*[#   7]+0.031*[#   4]
          +0.031*[#   8]
    |psi|^2 = 0.886
==== e(   7) =     9.38706 eV ==== 
     psi = 0.004*[#   1]+0.004*[#   5]
    |psi|^2 = 0.010
==== e(   8) =     9.52699 eV ==== 
     psi = 0.003*[#   3]+0.003*[#   7]+0.001*[#   4]+0.001*[#   8]
    |psi|^2 = 0.009
==== e(   9) =    10.15929 eV ==== 
     psi = 0.007*[#   2]+0.007*[#   6]
    |psi|^2 = 0.014
==== e(  10) =    10.41837 eV ==== 
 
    |psi|^2 = 0.000
==== e(  11) =    10.69142 eV ==== 
     psi = 0.002*[#   1]+0.002*[#   5]
    |psi|^2 = 0.004
==== e(  12) =    10.71709 eV ==== 
 
    |psi|^2 = 0.002
==== e(  13) =    12.04384 eV ==== 
     psi = 0.006*[#   2]+0.006*[#   6]
    |psi|^2 = 0.011
==== e(  14) =    12.61358 eV ==== 
 
    |psi|^2 = 0.000
==== e(  15) =    13.27839 eV ==== 
     psi = 0.008*[#   1]+0.008*[#   5]+0.005*[#   3]+0.005*[#   7]+0.003*[#   4]
          +0.003*[#   8]
    |psi|^2 = 0.031
==== e(  16) =    13.34941 eV ==== 
 
    |psi|^2 = 0.004
==== e(  17) =    14.83658 eV ==== 
     psi = 0.005*[#   2]+0.005*[#   6]
    |psi|^2 = 0.010
==== e(  18) =    16.53553 eV ==== 
 
    |psi|^2 = 0.000
==== e(  19) =    16.87844 eV ==== 
     psi = 0.064*[#   4]+0.064*[#   8]+0.054*[#   3]+0.054*[#   7]+0.047*[#   1]
          +0.047*[#   5]
    |psi|^2 = 0.330
==== e(  20) =    17.27196 eV ==== 
     psi = 0.004*[#   1]+0.004*[#   5]
    |psi|^2 = 0.008
==== e(  21) =    18.19401 eV ==== 
[...]
==== e(  11) =     7.49277 eV ==== 
     psi = 0.487*[#   2]+0.487*[#   6]
    |psi|^2 = 0.973
==== e(  12) =     8.58333 eV ==== 
     psi = 0.365*[#   4]+0.365*[#   8]+0.102*[#   1]+0.102*[#   5]+0.007*[#   3]
          +0.007*[#   7]
    |psi|^2 = 0.947
==== e(  13) =     9.38154 eV ==== 
     psi = 0.003*[#   2]+0.003*[#   6]
    |psi|^2 = 0.005
==== e(  14) =    10.54549 eV ==== 
     psi = 0.004*[#   3]+0.004*[#   7]
    |psi|^2 = 0.009
==== e(  15) =    12.36061 eV ==== 
     psi = 0.330*[#   1]+0.330*[#   5]+0.081*[#   3]+0.081*[#   7]+0.064*[#   4]
          +0.064*[#   8]
    |psi|^2 = 0.950
==== e(  16) =    14.61403 eV ==== 
     psi = 0.001*[#   2]+0.001*[#   6]
    |psi|^2 = 0.002
==== e(  17) =    16.24109 eV ==== 
 
    |psi|^2 = 0.002
==== e(  18) =    19.86563 eV ==== 
 
    |psi|^2 = 0.000
==== e(  19) =    22.20617 eV ==== 
 
    |psi|^2 = 0.001
==== e(  20) =    22.33261 eV ==== 
     psi = 0.005*[#   3]+0.005*[#   7]+0.005*[#   1]+0.005*[#   5]+0.003*[#   4]
          +0.003*[#   8]
    |psi|^2 = 0.026
==== e(  21) =    23.45572 eV ==== 
 
    |psi|^2 = 0.002
==== e(  22) =    24.00576 eV ==== 
     psi = 0.009*[#   2]+0.009*[#   6]
    |psi|^2 = 0.019
==== e(  23) =    25.32062 eV ==== 
     psi = 0.004*[#   1]+0.004*[#   5]+0.002*[#   3]+0.002*[#   7]
    |psi|^2 = 0.013
==== e(  24) =    25.81875 eV ==== 
 
    |psi|^2 = 0.000
==== e(  25) =    26.49335 eV ==== 
     psi = 0.001*[#   1]+0.001*[#   5]
    |psi|^2 = 0.004
==== e(  26) =    26.64379 eV ==== 
 
    |psi|^2 = 0.000
==== e(  27) =    26.76483 eV ==== 
 
    |psi|^2 = 0.000
==== e(  28) =    26.86837 eV ==== 
 
    |psi|^2 = 0.002
==== e(  29) =    28.02602 eV ==== 
 
    |psi|^2 = 0.000
==== e(  30) =    28.94801 eV ==== 
 
    |psi|^2 = 0.000
==== e(  31) =    29.20002 eV ==== 
     psi = 0.002*[#   1]+0.002*[#   5]
    |psi|^2 = 0.006
==== e(  32) =    29.20550 eV ==== 
 
    |psi|^2 = 0.001

 k =   0.1666666667  0.0000000000  0.0000000000
==== e(   1) =   -20.75178 eV ==== 
     psi = 0.421*[#   1]+0.421*[#   5]+0.070*[#   3]+0.070*[#   7]
    |psi|^2 = 0.983
==== e(   2) =    -8.75247 eV ==== 
     psi = 0.480*[#   2]+0.480*[#   6]
    |psi|^2 = 0.959
==== e(   3) =    -6.46252 eV ==== 
     psi = 0.424*[#   3]+0.424*[#   7]+0.040*[#   1]+0.040*[#   5]+0.035*[#   4]
          +0.035*[#   8]
    |psi|^2 = 0.998
==== e(   4) =    -5.79275 eV ==== 
     psi = 0.455*[#   4]+0.455*[#   8]+0.037*[#   3]+0.037*[#   7]+0.006*[#   1]
          +0.006*[#   5]
    |psi|^2 = 0.995
==== e(   5) =     2.09155 eV ==== 
     psi = 0.015*[#   3]+0.015*[#   7]
    |psi|^2 = 0.030
==== e(   6) =     2.92064 eV ==== 
     psi = 0.009*[#   2]+0.009*[#   6]
    |psi|^2 = 0.017
==== e(   7) =     3.18363 eV ==== 
     psi = 0.004*[#   3]+0.004*[#   7]
    |psi|^2 = 0.009
==== e(   8) =     5.14350 eV ==== 
     psi = 0.007*[#   2]+0.007*[#   6]
    |psi|^2 = 0.013
==== e(   9) =     5.97193 eV ==== 
     psi = 0.002*[#   1]+0.002*[#   5]
    |psi|^2 = 0.005
==== e(  10) =     6.97265 eV ==== 
     psi = 0.345*[#   3]+0.345*[#   7]+0.063*[#   1]+0.063*[#   5]+0.039*[#   4]
          +0.039*[#   8]
    |psi|^2 = 0.895
==== e(  11) =     8.10313 eV ==== 
     psi = 0.489*[#   2]+0.489*[#   6]
    |psi|^2 = 0.978
==== e(  12) =     8.16618 eV ==== 
     psi = 0.404*[#   4]+0.404*[#   8]+0.058*[#   1]+0.058*[#   5]+0.011*[#   3]
          +0.011*[#   7]
    |psi|^2 = 0.946
==== e(  13) =     9.10028 eV ==== 
     psi = 0.003*[#   2]+0.003*[#   6]
    |psi|^2 = 0.006
==== e(  14) =    10.25272 eV ==== 
     psi = 0.004*[#   3]+0.004*[#   7]
    |psi|^2 = 0.009
==== e(  15) =    11.80312 eV ==== 
     psi = 0.388*[#   1]+0.388*[#   5]+0.058*[#   3]+0.058*[#   7]+0.034*[#   4]
          +0.034*[#   8]
    |psi|^2 = 0.961
==== e(  16) =    14.37682 eV ==== 
     psi = 0.001*[#   2]+0.001*[#   6]
    |psi|^2 = 0.002
==== e(  17) =    15.95576 eV ==== 
 
    |psi|^2 = 0.002
==== e(  18) =    20.35845 eV ==== 
 
    |psi|^2 = 0.000
==== e(  19) =    22.03488 eV ==== 
     psi = 0.004*[#   3]+0.004*[#   7]+0.003*[#   1]+0.003*[#   5]+0.001*[#   4]
          +0.001*[#   8]
    |psi|^2 = 0.018
==== e(  20) =    22.57614 eV ==== 
 
    |psi|^2 = 0.001
==== e(  21) =    23.14248 eV ==== 
 
    |psi|^2 = 0.001
==== e(  22) =    24.51936 eV ==== 
     psi = 0.008*[#   2]+0.008*[#   6]
    |psi|^2 = 0.016
==== e(  23) =    26.60825 eV ==== 
     psi = 0.003*[#   1]+0.003*[#   5]+0.001*[#   3]+0.001*[#   7]
    |psi|^2 = 0.010
==== e(  24) =    27.02649 eV ==== 
 
    |psi|^2 = 0.000
==== e(  25) =    27.72572 eV ==== 
 
    |psi|^2 = 0.000
==== e(  26) =    27.81968 eV ==== 
 
    |psi|^2 = 0.003
==== e(  27) =    27.94418 eV ==== 
 
    |psi|^2 = 0.000
==== e(  28) =    27.99825 eV ==== 
 
    |psi|^2 = 0.000
==== e(  29) =    28.06075 eV ==== 
 
    |psi|^2 = 0.001
==== e(  30) =    29.87554 eV ==== 
 
    |psi|^2 = 0.000
==== e(  31) =    30.34868 eV ==== 
 
    |psi|^2 = 0.000
==== e(  32) =    30.50368 eV ==== 
     psi = 0.001*[#   1]+0.001*[#   5]
    |psi|^2 = 0.004

 k =   0.1333333333  0.0000000000  0.0000000000
==== e(   1) =   -20.92809 eV ==== 
     psi = 0.442*[#   1]+0.442*[#   5]+0.049*[#   3]+0.049*[#   7]
    |psi|^2 = 0.983
==== e(   2) =    -8.96212 eV ==== 
     psi = 0.477*[#   2]+0.477*[#   6]
    |psi|^2 = 0.955
==== e(   3) =    -5.92606 eV ==== 
     psi = 0.445*[#   3]+0.445*[#   7]+0.028*[#   1]+0.028*[#   5]+0.026*[#   4]
          +0.026*[#   8]
    |psi|^2 = 0.998
==== e(   4) =    -5.44378 eV ==== 
     psi = 0.468*[#   4]+0.468*[#   8]+0.027*[#   3]+0.027*[#   7]+0.003*[#   1]
          +0.003*[#   5]
    |psi|^2 = 0.996
==== e(   5) =     1.84979 eV ==== 
     psi = 0.012*[#   3]+0.012*[#   7]
    |psi|^2 = 0.025
==== e(   6) =     2.67765 eV ==== 
     psi = 0.010*[#   2]+0.010*[#   6]
    |psi|^2 = 0.019
==== e(   7) =     2.93941 eV ==== 
     psi = 0.004*[#   3]+0.004*[#   7]
    |psi|^2 = 0.008
==== e(   8) =     4.90364 eV ==== 
     psi = 0.007*[#   2]+0.007*[#   6]
    |psi|^2 = 0.015
==== e(   9) =     5.73466 eV ==== 
     psi = 0.002*[#   1]+0.002*[#   5]
    |psi|^2 = 0.003
==== e(  10) =     6.82843 eV ==== 
     psi = 0.380*[#   3]+0.380*[#   7]+0.047*[#   1]+0.047*[#   5]+0.028*[#   4]
          +0.028*[#   8]
    |psi|^2 = 0.910
==== e(  11) =     7.71988 eV ==== 
     psi = 0.433*[#   4]+0.433*[#   8]+0.026*[#   1]+0.026*[#   5]+0.014*[#   3]
          +0.014*[#   7]
    |psi|^2 = 0.947
==== e(  12) =     8.63819 eV ==== 
     psi = 0.491*[#   2]+0.491*[#   6]
    |psi|^2 = 0.982
==== e(  13) =     8.86849 eV ==== 
     psi = 0.003*[#   2]+0.003*[#   6]
    |psi|^2 = 0.007
==== e(  14) =    10.01214 eV ==== 
     psi = 0.003*[#   3]+0.003*[#   7]
    |psi|^2 = 0.007
==== e(  15) =    11.38298 eV ==== 
     psi = 0.433*[#   1]+0.433*[#   5]+0.037*[#   3]+0.037*[#   7]+0.015*[#   4]
          +0.015*[#   8]
    |psi|^2 = 0.970
==== e(  16) =    14.17231 eV ==== 
     psi = 0.001*[#   2]+0.001*[#   6]
    |psi|^2 = 0.003
==== e(  17) =    15.72074 eV ==== 
 
    |psi|^2 = 0.002
==== e(  18) =    20.50071 eV ==== 
 
    |psi|^2 = 0.001
==== e(  19) =    21.66130 eV ==== 
     psi = 0.003*[#   3]+0.003*[#   7]+0.002*[#   1]+0.002*[#   5]
    |psi|^2 = 0.011
==== e(  20) =    22.88717 eV ==== 
 
    |psi|^2 = 0.001
==== e(  21) =    23.38707 eV ==== 
 
    |psi|^2 = 0.000
==== e(  22) =    24.99090 eV ==== 
     psi = 0.006*[#   2]+0.006*[#   6]
    |psi|^2 = 0.012
==== e(  23) =    27.50804 eV ==== 
 
    |psi|^2 = 0.000
==== e(  24) =    27.94924 eV ==== 
     psi = 0.003*[#   1]+0.003*[#   5]
    |psi|^2 = 0.007
==== e(  25) =    28.32334 eV ==== 
 
    |psi|^2 = 0.001
==== e(  26) =    29.15885 eV ==== 
 
    |psi|^2 = 0.000
==== e(  27) =    29.20189 eV ==== 
 
    |psi|^2 = 0.002
==== e(  28) =    29.33072 eV ==== 
 
    |psi|^2 = 0.000
==== e(  29) =    29.34831 eV ==== 
 
    |psi|^2 = 0.000
==== e(  30) =    30.32346 eV ==== 
 
    |psi|^2 = 0.000
==== e(  31) =    31.35064 eV ==== 
 
    |psi|^2 = 0.000
==== e(  32) =    31.56440 eV ==== 
 
    |psi|^2 = 0.000

 k =   0.1000000000  0.0000000000  0.0000000000
==== e(   1) =   -21.06544 eV ==== 
     psi = 0.462*[#   1]+0.462*[#   5]+0.030*[#   3]+0.030*[#   7]
    |psi|^2 = 0.984
==== e(   2) =    -9.12587 eV ==== 
     psi = 0.475*[#   2]+0.475*[#   6]
    |psi|^2 = 0.951
==== e(   3) =    -5.46032 eV ==== 
     psi = 0.465*[#   3]+0.465*[#   7]+0.017*[#   1]+0.017*[#   5]+0.017*[#   4]
          +0.017*[#   8]
    |psi|^2 = 0.997
==== e(   4) =    -5.15994 eV ==== 
     psi = 0.480*[#   4]+0.480*[#   8]+0.017*[#   3]+0.017*[#   7]+0.001*[#   1]
          +0.001*[#   5]
    |psi|^2 = 0.997
==== e(   5) =     1.66176 eV ==== 
     psi = 0.008*[#   3]+0.008*[#   7]+0.001*[#   1]+0.001*[#   5]
    |psi|^2 = 0.018
==== e(   6) =     2.48850 eV ==== 
     psi = 0.010*[#   2]+0.010*[#   6]
    |psi|^2 = 0.021
==== e(   7) =     2.74949 eV ==== 
     psi = 0.002*[#   3]+0.002*[#   7]
    |psi|^2 = 0.006
==== e(   8) =     4.71678 eV ==== 
     psi = 0.008*[#   2]+0.008*[#   6]
    |psi|^2 = 0.016
==== e(   9) =     5.55016 eV ==== 
     psi = 0.001*[#   1]+0.001*[#   5]
    |psi|^2 = 0.003
==== e(  10) =     6.72273 eV ==== 
     psi = 0.415*[#   3]+0.415*[#   7]+0.030*[#   1]+0.030*[#   5]+0.017*[#   4]
          +0.017*[#   8]
    |psi|^2 = 0.925
==== e(  11) =     7.28808 eV ==== 
     psi = 0.453*[#   4]+0.453*[#   8]+0.012*[#   3]+0.012*[#   7]+0.009*[#   1]
          +0.009*[#   5]
    |psi|^2 = 0.948
==== e(  12) =     8.68732 eV ==== 
     psi = 0.004*[#   2]+0.004*[#   6]
    |psi|^2 = 0.007
==== e(  13) =     9.07918 eV ==== 
     psi = 0.494*[#   2]+0.494*[#   6]
    |psi|^2 = 0.987
==== e(  14) =     9.82421 eV ==== 
     psi = 0.002*[#   3]+0.002*[#   7]
    |psi|^2 = 0.006
==== e(  15) =    11.08727 eV ==== 
     psi = 0.462*[#   1]+0.462*[#   5]+0.020*[#   3]+0.020*[#   7]+0.005*[#   4]
          +0.005*[#   8]
    |psi|^2 = 0.974
==== e(  16) =    14.00849 eV ==== 
     psi = 0.002*[#   2]+0.002*[#   6]
    |psi|^2 = 0.003
==== e(  17) =    15.53685 eV ==== 
 
    |psi|^2 = 0.002
==== e(  18) =    20.48124 eV ==== 
 
    |psi|^2 = 0.001
==== e(  19) =    21.29923 eV ==== 
     psi = 0.002*[#   3]+0.002*[#   7]+0.001*[#   1]+0.001*[#   5]
    |psi|^2 = 0.007
==== e(  20) =    22.69662 eV ==== 
 
    |psi|^2 = 0.001
==== e(  21) =    24.41196 eV ==== 
 
    |psi|^2 = 0.000
==== e(  22) =    25.45779 eV ==== 
     psi = 0.004*[#   2]+0.004*[#   6]
    |psi|^2 = 0.008
==== e(  23) =    27.34248 eV ==== 
 
    |psi|^2 = 0.000
==== e(  24) =    29.34077 eV ==== 
     psi = 0.002*[#   1]+0.002*[#   5]
    |psi|^2 = 0.006
==== e(  25) =    29.68354 eV ==== 
 
    |psi|^2 = 0.001
==== e(  26) =    29.79274 eV ==== 
 
    |psi|^2 = 0.000
==== e(  27) =    30.63896 eV ==== 
 
    |psi|^2 = 0.001
==== e(  28) =    30.71408 eV ==== 
 
    |psi|^2 = 0.000
==== e(  29) =    30.73089 eV ==== 
 
    |psi|^2 = 0.001
==== e(  30) =    31.11533 eV ==== 
 
    |psi|^2 = 0.000
==== e(  31) =    31.17958 eV ==== 
 
    |psi|^2 = 0.000
==== e(  32) =    31.65695 eV ==== 
 
    |psi|^2 = 0.001

 k =   0.0666666667  0.0000000000  0.0000000000
==== e(   1) =   -21.16368 eV ==== 
     psi = 0.478*[#   1]+0.478*[#   5]+0.014*[#   3]+0.014*[#   7]
    |psi|^2 = 0.984
==== e(   2) =    -9.24319 eV ==== 
     psi = 0.474*[#   2]+0.474*[#   6]
    |psi|^2 = 0.948
==== e(   3) =    -5.09469 eV ==== 
     psi = 0.482*[#   3]+0.482*[#   7]+0.008*[#   4]+0.008*[#   8]+0.008*[#   1]
          +0.008*[#   5]
    |psi|^2 = 0.997
==== e(   4) =    -4.95013 eV ==== 
     psi = 0.490*[#   4]+0.490*[#   8]+0.008*[#   3]+0.008*[#   7]
    |psi|^2 = 0.997
==== e(   5) =     1.52747 eV ==== 
     psi = 0.004*[#   3]+0.004*[#   7]+0.002*[#   1]+0.002*[#   5]
    |psi|^2 = 0.012
==== e(   6) =     2.35332 eV ==== 
     psi = 0.011*[#   2]+0.011*[#   6]
    |psi|^2 = 0.022
==== e(   7) =     2.61387 eV ==== 
     psi = 0.001*[#   3]+0.001*[#   7]
    |psi|^2 = 0.004
==== e(   8) =     4.58317 eV ==== 
     psi = 0.008*[#   2]+0.008*[#   6]
    |psi|^2 = 0.017
==== e(   9) =     5.41843 eV ==== 
     psi = 0.001*[#   1]+0.001*[#   5]
    |psi|^2 = 0.003
==== e(  10) =     6.65146 eV ==== 
     psi = 0.446*[#   3]+0.446*[#   7]+0.015*[#   1]+0.015*[#   5]+0.008*[#   4]
          +0.008*[#   8]
    |psi|^2 = 0.938
==== e(  11) =     6.92528 eV ==== 
     psi = 0.466*[#   4]+0.466*[#   8]+0.007*[#   3]+0.007*[#   7]+0.002*[#   1]
          +0.002*[#   5]
    |psi|^2 = 0.949
==== e(  12) =     8.55749 eV ==== 
     psi = 0.004*[#   2]+0.004*[#   6]
    |psi|^2 = 0.008
==== e(  13) =     9.40875 eV ==== 
     psi = 0.496*[#   2]+0.496*[#   6]
    |psi|^2 = 0.992
==== e(  14) =     9.68943 eV ==== 
     psi = 0.001*[#   3]+0.001*[#   7]
    |psi|^2 = 0.004
==== e(  15) =    10.89483 eV ==== 
     psi = 0.479*[#   1]+0.479*[#   5]+0.009*[#   3]+0.009*[#   7]
    |psi|^2 = 0.977
==== e(  16) =    13.88944 eV ==== 
     psi = 0.002*[#   2]+0.002*[#   6]
    |psi|^2 = 0.003
==== e(  17) =    15.40483 eV ==== 
 
    |psi|^2 = 0.001
==== e(  18) =    20.42721 eV ==== 
 
    |psi|^2 = 0.001
==== e(  19) =    21.00636 eV ==== 
 
    |psi|^2 = 0.003
==== e(  20) =    22.56465 eV ==== 
 
    |psi|^2 = 0.001
==== e(  21) =    25.44255 eV ==== 
 
    |psi|^2 = 0.000
==== e(  22) =    25.91961 eV ==== 
     psi = 0.002*[#   2]+0.002*[#   6]
    |psi|^2 = 0.004
==== e(  23) =    27.25831 eV ==== 
 
    |psi|^2 = 0.000
==== e(  24) =    29.86515 eV ==== 
 
    |psi|^2 = 0.000
==== e(  25) =    30.77768 eV ==== 
     psi = 0.001*[#   1]+0.001*[#   5]
    |psi|^2 = 0.004
==== e(  26) =    30.79824 eV ==== 
 
    |psi|^2 = 0.000
==== e(  27) =    31.03877 eV ==== 
 
    |psi|^2 = 0.000
==== e(  28) =    31.10231 eV ==== 
 
    |psi|^2 = 0.001
==== e(  29) =    32.12887 eV ==== 
 
    |psi|^2 = 0.001
==== e(  30) =    32.14084 eV ==== 
 
    |psi|^2 = 0.000
==== e(  31) =    32.18287 eV ==== 
 
    |psi|^2 = 0.001
==== e(  32) =    32.47594 eV ==== 
 
    |psi|^2 = 0.000

 k =   0.0333333333  0.0000000000  0.0000000000
==== e(   1) =   -21.22266 eV ==== 
     psi = 0.488*[#   1]+0.488*[#   5]+0.004*[#   3]+0.004*[#   7]
    |psi|^2 = 0.984
==== e(   2) =    -9.31372 eV ==== 
     psi = 0.473*[#   2]+0.473*[#   6]
    |psi|^2 = 0.947
==== e(   3) =    -4.85926 eV ==== 
     psi = 0.494*[#   3]+0.494*[#   7]+0.002*[#   4]+0.002*[#   8]+0.002*[#   1]
          +0.002*[#   5]
    |psi|^2 = 0.997
==== e(   4) =    -4.82128 eV ==== 
     psi = 0.496*[#   4]+0.496*[#   8]+0.002*[#   3]+0.002*[#   7]
    |psi|^2 = 0.997
==== e(   5) =     1.44691 eV ==== 
     psi = 0.003*[#   1]+0.003*[#   5]+0.001*[#   3]+0.001*[#   7]
    |psi|^2 = 0.007
==== e(   6) =     2.27218 eV ==== 
     psi = 0.011*[#   2]+0.011*[#   6]
    |psi|^2 = 0.022
==== e(   7) =     2.53251 eV ==== 
     psi = 0.001*[#   1]+0.001*[#   5]
    |psi|^2 = 0.003
==== e(   8) =     4.50295 eV ==== 
     psi = 0.009*[#   2]+0.009*[#   6]
    |psi|^2 = 0.017
==== e(   9) =     5.33943 eV ==== 
     psi = 0.001*[#   1]+0.001*[#   5]
    |psi|^2 = 0.003
==== e(  10) =     6.61077 eV ==== 
     psi = 0.468*[#   3]+0.468*[#   7]+0.004*[#   1]+0.004*[#   5]+0.002*[#   4]
          +0.002*[#   8]
    |psi|^2 = 0.948
==== e(  11) =     6.68288 eV ==== 
     psi = 0.473*[#   4]+0.473*[#   8]+0.002*[#   3]+0.002*[#   7]
    |psi|^2 = 0.951
==== e(  12) =     8.47944 eV ==== 
     psi = 0.004*[#   2]+0.004*[#   6]
    |psi|^2 = 0.008
==== e(  13) =     9.60831 eV ==== 
 
    |psi|^2 = 0.002
==== e(  14) =     9.61271 eV ==== 
     psi = 0.497*[#   2]+0.497*[#   6]
    |psi|^2 = 0.994
==== e(  15) =    10.78708 eV ==== 
     psi = 0.487*[#   1]+0.487*[#   5]+0.002*[#   3]+0.002*[#   7]
    |psi|^2 = 0.978
==== e(  16) =    13.81731 eV ==== 
     psi = 0.002*[#   2]+0.002*[#   6]
    |psi|^2 = 0.003
==== e(  17) =    15.32531 eV ==== 
 
    |psi|^2 = 0.001
==== e(  18) =    20.38448 eV ==== 
 
    |psi|^2 = 0.002
==== e(  19) =    20.81797 eV ==== 
 
    |psi|^2 = 0.002
==== e(  20) =    22.48679 eV ==== 
 
    |psi|^2 = 0.001
==== e(  21) =    26.22537 eV ==== 
 
    |psi|^2 = 0.000
==== e(  22) =    26.31220 eV ==== 
 
    |psi|^2 = 0.001
==== e(  23) =    27.31197 eV ==== 
 
    |psi|^2 = 0.000
==== e(  24) =    29.86297 eV ==== 
 
    |psi|^2 = 0.000
==== e(  25) =    30.13017 eV ==== 
 
    |psi|^2 = 0.000
==== e(  26) =    30.98135 eV ==== 
 
    |psi|^2 = 0.000
==== e(  27) =    32.24268 eV ==== 
 
    |psi|^2 = 0.003
==== e(  28) =    32.31463 eV ==== 
 
    |psi|^2 = 0.000
==== e(  29) =    32.47948 eV ==== 
 
    |psi|^2 = 0.002
==== e(  30) =    33.58994 eV ==== 
 
    |psi|^2 = 0.000
==== e(  31) =    33.60118 eV ==== 
 
    |psi|^2 = 0.000
==== e(  32) =    33.65879 eV ==== 
 
    |psi|^2 = 0.000

 k =   0.0000000000  0.0000000000  0.0000000000
==== e(   1) =   -21.24235 eV ==== 
     psi = 0.492*[#   1]+0.492*[#   5]
    |psi|^2 = 0.984
==== e(   2) =    -9.33726 eV ==== 
     psi = 0.473*[#   2]+0.473*[#   6]
    |psi|^2 = 0.946
==== e(   3) =    -4.77787 eV ==== 
     psi = 0.374*[#   4]+0.374*[#   8]+0.125*[#   3]+0.125*[#   7]
    |psi|^2 = 0.997
==== e(   4) =    -4.77775 eV ==== 
     psi = 0.374*[#   3]+0.374*[#   7]+0.125*[#   4]+0.125*[#   8]
    |psi|^2 = 0.997
==== e(   5) =     1.42005 eV ==== 
     psi = 0.003*[#   1]+0.003*[#   5]
    |psi|^2 = 0.006
==== e(   6) =     2.24513 eV ==== 
     psi = 0.011*[#   2]+0.011*[#   6]
    |psi|^2 = 0.023
==== e(   7) =     2.50539 eV ==== 
     psi = 0.001*[#   1]+0.001*[#   5]
    |psi|^2 = 0.002
==== e(   8) =     4.47620 eV ==== 
     psi = 0.009*[#   2]+0.009*[#   6]
    |psi|^2 = 0.018
==== e(   9) =     5.31311 eV ==== 
     psi = 0.001*[#   1]+0.001*[#   5]
    |psi|^2 = 0.003
==== e(  10) =     6.59746 eV ==== 
     psi = 0.357*[#   3]+0.357*[#   7]+0.119*[#   4]+0.119*[#   8]
    |psi|^2 = 0.951
==== e(  11) =     6.59760 eV ==== 
     psi = 0.357*[#   4]+0.357*[#   8]+0.119*[#   3]+0.119*[#   7]
    |psi|^2 = 0.951
==== e(  12) =     8.45339 eV ==== 
     psi = 0.004*[#   2]+0.004*[#   6]
    |psi|^2 = 0.008
==== e(  13) =     9.58123 eV ==== 
 
    |psi|^2 = 0.002
==== e(  14) =     9.68177 eV ==== 
     psi = 0.498*[#   2]+0.498*[#   6]
    |psi|^2 = 0.995
==== e(  15) =    10.75242 eV ==== 
     psi = 0.489*[#   1]+0.489*[#   5]
    |psi|^2 = 0.979
==== e(  16) =    13.79316 eV ==== 
     psi = 0.002*[#   2]+0.002*[#   6]
    |psi|^2 = 0.003
==== e(  17) =    15.29874 eV ==== 
 
    |psi|^2 = 0.001
==== e(  18) =    20.36890 eV ==== 
 
    |psi|^2 = 0.002
==== e(  19) =    20.75313 eV ==== 
 
    |psi|^2 = 0.001
==== e(  20) =    22.46102 eV ==== 
 
    |psi|^2 = 0.001
==== e(  21) =    26.48097 eV ==== 
 
    |psi|^2 = 0.000
==== e(  22) =    26.48101 eV ==== 
 
    |psi|^2 = 0.000
==== e(  23) =    27.42770 eV ==== 
 
    |psi|^2 = 0.000
==== e(  24) =    29.86491 eV ==== 
 
    |psi|^2 = 0.000
==== e(  25) =    29.86495 eV ==== 
 
    |psi|^2 = 0.000
==== e(  26) =    30.95706 eV ==== 
 
    |psi|^2 = 0.000
==== e(  27) =    31.85240 eV ==== 
 
    |psi|^2 = 0.000
==== e(  28) =    33.43694 eV ==== 
 
    |psi|^2 = 0.000
==== e(  29) =    33.43694 eV ==== 
 
    |psi|^2 = 0.000
==== e(  30) =    33.92084 eV ==== 
     psi = 0.002*[#   3]+0.002*[#   7]
    |psi|^2 = 0.005
==== e(  31) =    33.92085 eV ==== 
     psi = 0.002*[#   4]+0.002*[#   8]
    |psi|^2 = 0.005
==== e(  32) =    34.35146 eV ==== 
     psi = 0.002*[#   1]+0.002*[#   5]
    |psi|^2 = 0.005

Lowdin Charges: 

     Atom #   1: total charge =   3.9513, s =  0.9121, 
     Atom #   1: total charge =   3.9513, p =  3.0392, pz=  0.9806, px=  1.0637, py=  0.9949, 
     Atom #   2: total charge =   3.9513, s =  0.9121, 
     Atom #   2: total charge =   3.9513, p =  3.0392, pz=  0.9806, px=  1.0637, py=  0.9949, 
     Spilling Parameter:   0.0122
 
     PROJWFC      :      4.60s CPU     13.23s WALL

 
   This run was terminated on:  15:40:36   9Jun2022            

=------------------------------------------------------------------------------=
   JOB DONE.
=------------------------------------------------------------------------------=
