 written on 13Jun2022 at 18:52:01 
         144           8
    0.000000    0.245072    0.000000    5.549999
    0.212238    0.122536    0.000000    5.549999
    0.000000   -0.245072    0.000000    5.549999
    0.212238   -0.122536    0.000000    5.549999
   -0.212238   -0.122536    0.000000    5.549999
   -0.212238    0.122536    0.000000    5.549999
    0.000000    0.000000    0.418879    2.849658
    0.000000    0.000000   -0.418879    2.849658
    0.000000   -0.245072    0.000000    5.549999
    0.000000    0.245072    0.000000    5.549999
    0.212238   -0.122536    0.000000    5.549999
    0.212238    0.122536    0.000000    5.549999
   -0.212238   -0.122536    0.000000    5.549999
   -0.212238    0.122536    0.000000    5.549999
    0.000000    0.000000    0.418879    2.849658
    0.000000    0.000000   -0.418879    2.849658
    0.000000   -0.245072    0.000000    5.549999
    0.000000    0.245072    0.000000    5.549999
    0.212238   -0.122536    0.000000    5.549999
    0.212238    0.122536    0.000000    5.549999
   -0.212238   -0.122536    0.000000    5.549999
   -0.212238    0.122536    0.000000    5.549999
    0.000000    0.000000    0.418879    2.849658
    0.000000    0.000000   -0.418879    2.849658
    0.000000   -0.245072    0.000000    5.549999
    0.000000    0.245072    0.000000    5.549999
    0.212238   -0.122536    0.000000    5.549999
    0.212238    0.122536    0.000000    5.549999
   -0.212238   -0.122536    0.000000    5.549999
   -0.212238    0.122536    0.000000    5.549999
    0.000000    0.000000    0.418879    2.849658
    0.000000    0.000000   -0.418879    2.849658
    0.000000   -0.245072    0.000000    5.549999
    0.000000    0.245072    0.000000    5.549999
    0.212238   -0.122536    0.000000    5.549999
    0.212238    0.122536    0.000000    5.549999
   -0.212238   -0.122536    0.000000    5.549999
   -0.212238    0.122536    0.000000    5.549999
    0.000000    0.000000    0.418879    2.849658
    0.000000    0.000000   -0.418879    2.849658
    0.000000   -0.245072    0.000000    5.549999
    0.000000    0.245072    0.000000    5.549999
    0.212238   -0.122536    0.000000    5.549999
    0.212238    0.122536    0.000000    5.549999
   -0.212238   -0.122536    0.000000    5.549999
   -0.212238    0.122536    0.000000    5.549999
    0.000000    0.000000    0.418879    2.849658
    0.000000    0.000000   -0.418879    2.849658
    0.000000   -0.245072    0.000000    5.549999
    0.000000    0.245072    0.000000    5.549999
    0.212238   -0.122536    0.000000    5.549999
    0.212238    0.122536    0.000000    5.549999
   -0.212238   -0.122536    0.000000    5.549999
   -0.212238    0.122536    0.000000    5.549999
    0.000000    0.000000    0.418879    2.849658
    0.000000    0.000000   -0.418879    2.849658
    0.000000   -0.245072    0.000000    5.549999
    0.000000    0.245072    0.000000    5.549999
    0.212238   -0.122536    0.000000    5.549999
    0.212238    0.122536    0.000000    5.549999
   -0.212238   -0.122536    0.000000    5.549999
   -0.212238    0.122536    0.000000    5.549999
    0.000000    0.000000    0.418879    2.849658
    0.000000    0.000000   -0.418879    2.849658
    0.000000   -0.245072    0.000000    5.549999
    0.000000    0.245072    0.000000    5.549999
    0.212238   -0.122536    0.000000    5.549999
    0.212238    0.122536    0.000000    5.549999
   -0.212238   -0.122536    0.000000    5.549999
   -0.212238    0.122536    0.000000    5.549999
    0.000000    0.000000    0.418879    2.849658
    0.000000    0.000000   -0.418879    2.849658
    0.000000   -0.245072    0.000000    5.549999
    0.000000    0.245072    0.000000    5.549999
    0.212238   -0.122536    0.000000    5.549999
    0.212238    0.122536    0.000000    5.549999
   -0.212238   -0.122536    0.000000    5.549999
   -0.212238    0.122536    0.000000    5.549999
    0.000000    0.000000    0.418879    2.849658
    0.000000    0.000000   -0.418879    2.849658
    0.000000   -0.245072    0.000000    5.549999
    0.000000    0.245072    0.000000    5.549999
    0.212238   -0.122536    0.000000    5.549999
    0.212238    0.122536    0.000000    5.549999
   -0.212238   -0.122536    0.000000    5.549999
   -0.212238    0.122536    0.000000    5.549999
    0.000000    0.000000    0.418879    2.849658
    0.000000    0.000000   -0.418879    2.849658
    0.000000   -0.245072    0.000000    5.549999
    0.212238   -0.122536    0.000000    5.549999
    0.212238    0.122536    0.000000    5.549999
    0.000000    0.245072    0.000000    5.549999
   -0.212238    0.122536    0.000000    5.549999
   -0.212238   -0.122536    0.000000    5.549999
    0.000000    0.000000    0.418879    2.849658
    0.000000    0.000000   -0.418879    2.849658
   -0.212238   -0.122536    0.000000    5.549999
   -0.212238    0.122536    0.000000    5.549999
    0.000000    0.245072    0.000000    5.549999
    0.212238    0.122536    0.000000    5.549999
    0.000000   -0.245072    0.000000    5.549999
    0.212238   -0.122536    0.000000    5.549999
    0.000000    0.000000    0.418879    2.849658
    0.000000    0.000000   -0.418879    2.849658
   -0.212238   -0.122536    0.000000    5.549999
   -0.212238    0.122536    0.000000    5.549999
    0.000000   -0.245072    0.000000    5.549999
    0.000000    0.245072    0.000000    5.549999
    0.212238   -0.122536    0.000000    5.549999
    0.212238    0.122536    0.000000    5.549999
    0.000000    0.000000    0.418879    2.849658
    0.000000    0.000000   -0.418879    2.849658
   -0.212238   -0.122536    0.000000    5.549999
   -0.212238    0.122536    0.000000    5.549999
    0.000000   -0.245072    0.000000    5.549999
    0.000000    0.245072    0.000000    5.549999
    0.212238   -0.122536    0.000000    5.549999
    0.212238    0.122536    0.000000    5.549999
    0.000000    0.000000    0.418879    2.849658
    0.000000    0.000000   -0.418879    2.849658
   -0.212238   -0.122536    0.000000    5.549999
   -0.212238    0.122536    0.000000    5.549999
    0.000000   -0.245072    0.000000    5.549999
    0.000000    0.245072    0.000000    5.549999
    0.212238   -0.122536    0.000000    5.549999
    0.212238    0.122536    0.000000    5.549999
    0.000000    0.000000    0.418879    2.849658
    0.000000    0.000000   -0.418879    2.849658
   -0.212238   -0.122536    0.000000    5.549999
   -0.212238    0.122536    0.000000    5.549999
    0.000000   -0.245072    0.000000    5.549999
    0.000000    0.245072    0.000000    5.549999
    0.212238   -0.122536    0.000000    5.549999
    0.212238    0.122536    0.000000    5.549999
    0.000000    0.000000    0.418879    2.849658
    0.000000    0.000000   -0.418879    2.849658
   -0.212238   -0.122536    0.000000    5.549999
   -0.212238    0.122536    0.000000    5.549999
    0.000000   -0.245072    0.000000    5.549999
    0.000000    0.245072    0.000000    5.549999
    0.212238   -0.122536    0.000000    5.549999
    0.212238    0.122536    0.000000    5.549999
    0.000000    0.000000    0.418879    2.849658
    0.000000    0.000000   -0.418879    2.849658
   -0.212238   -0.122536    0.000000    5.549999
   -0.212238    0.122536    0.000000    5.549999
    0.000000   -0.245072    0.000000    5.549999
    0.000000    0.245072    0.000000    5.549999
    0.212238   -0.122536    0.000000    5.549999
    0.212238    0.122536    0.000000    5.549999
    0.000000    0.000000    0.418879    2.849658
    0.000000    0.000000   -0.418879    2.849658
   -0.212238   -0.122536    0.000000    5.549999
   -0.212238    0.122536    0.000000    5.549999
    0.000000   -0.245072    0.000000    5.549999
    0.000000    0.245072    0.000000    5.549999
    0.212238   -0.122536    0.000000    5.549999
    0.212238    0.122536    0.000000    5.549999
    0.000000    0.000000    0.418879    2.849658
    0.000000    0.000000   -0.418879    2.849658
   -0.212238   -0.122536    0.000000    5.549999
   -0.212238    0.122536    0.000000    5.549999
    0.000000   -0.245072    0.000000    5.549999
    0.000000    0.245072    0.000000    5.549999
    0.212238   -0.122536    0.000000    5.549999
    0.212238    0.122536    0.000000    5.549999
    0.000000    0.000000    0.418879    2.849658
    0.000000    0.000000   -0.418879    2.849658
   -0.212238   -0.122536    0.000000    5.549999
   -0.212238    0.122536    0.000000    5.549999
    0.000000   -0.245072    0.000000    5.549999
    0.000000    0.245072    0.000000    5.549999
    0.212238   -0.122536    0.000000    5.549999
    0.212238    0.122536    0.000000    5.549999
    0.000000    0.000000    0.418879    2.849658
    0.000000    0.000000   -0.418879    2.849658
   -0.212238   -0.122536    0.000000    5.549999
   -0.212238    0.122536    0.000000    5.549999
    0.000000   -0.245072    0.000000    5.549999
    0.000000    0.245072    0.000000    5.549999
    0.212238   -0.122536    0.000000    5.549999
    0.212238    0.122536    0.000000    5.549999
    0.000000    0.000000    0.418879    2.849658
    0.000000    0.000000   -0.418879    2.849658
   -0.212238   -0.122536    0.000000    5.549999
    0.000000   -0.245072    0.000000    5.549999
    0.212238   -0.122536    0.000000    5.549999
    0.212238    0.122536    0.000000    5.549999
   -0.212238    0.122536    0.000000    5.549999
    0.000000    0.245072    0.000000    5.549999
    0.000000    0.000000    0.418879    2.849658
    0.000000    0.000000   -0.418879    2.849658
   -0.212238   -0.122536    0.000000    5.549999
   -0.212238    0.122536    0.000000    5.549999
    0.000000    0.245072    0.000000    5.549999
    0.212238    0.122536    0.000000    5.549999
    0.000000   -0.245072    0.000000    5.549999
    0.212238   -0.122536    0.000000    5.549999
    0.000000    0.000000    0.418879    2.849658
    0.000000    0.000000   -0.418879    2.849658
   -0.212238   -0.122536    0.000000    5.549999
   -0.212238    0.122536    0.000000    5.549999
    0.000000   -0.245072    0.000000    5.549999
    0.000000    0.245072    0.000000    5.549999
    0.212238   -0.122536    0.000000    5.549999
    0.212238    0.122536    0.000000    5.549999
    0.000000    0.000000    0.418879    2.849658
    0.000000    0.000000   -0.418879    2.849658
   -0.212238   -0.122536    0.000000    5.549999
   -0.212238    0.122536    0.000000    5.549999
    0.000000   -0.245072    0.000000    5.549999
    0.000000    0.245072    0.000000    5.549999
    0.212238   -0.122536    0.000000    5.549999
    0.212238    0.122536    0.000000    5.549999
    0.000000    0.000000    0.418879    2.849658
    0.000000    0.000000   -0.418879    2.849658
   -0.212238   -0.122536    0.000000    5.549999
   -0.212238    0.122536    0.000000    5.549999
    0.000000   -0.245072    0.000000    5.549999
    0.000000    0.245072    0.000000    5.549999
    0.212238   -0.122536    0.000000    5.549999
    0.212238    0.122536    0.000000    5.549999
    0.000000    0.000000    0.418879    2.849658
    0.000000    0.000000   -0.418879    2.849658
   -0.212238   -0.122536    0.000000    5.549999
   -0.212238    0.122536    0.000000    5.549999
    0.000000   -0.245072    0.000000    5.549999
    0.000000    0.245072    0.000000    5.549999
    0.212238   -0.122536    0.000000    5.549999
    0.212238    0.122536    0.000000    5.549999
    0.000000    0.000000    0.418879    2.849658
    0.000000    0.000000   -0.418879    2.849658
   -0.212238   -0.122536    0.000000    5.549999
   -0.212238    0.122536    0.000000    5.549999
    0.000000   -0.245072    0.000000    5.549999
    0.000000    0.245072    0.000000    5.549999
    0.212238   -0.122536    0.000000    5.549999
    0.212238    0.122536    0.000000    5.549999
    0.000000    0.000000    0.418879    2.849658
    0.000000    0.000000   -0.418879    2.849658
   -0.212238   -0.122536    0.000000    5.549999
   -0.212238    0.122536    0.000000    5.549999
    0.000000   -0.245072    0.000000    5.549999
    0.000000    0.245072    0.000000    5.549999
    0.212238   -0.122536    0.000000    5.549999
    0.212238    0.122536    0.000000    5.549999
    0.000000    0.000000    0.418879    2.849658
    0.000000    0.000000   -0.418879    2.849658
   -0.212238   -0.122536    0.000000    5.549999
   -0.212238    0.122536    0.000000    5.549999
    0.000000   -0.245072    0.000000    5.549999
    0.000000    0.245072    0.000000    5.549999
    0.212238   -0.122536    0.000000    5.549999
    0.212238    0.122536    0.000000    5.549999
    0.000000    0.000000    0.418879    2.849658
    0.000000    0.000000   -0.418879    2.849658
   -0.212238   -0.122536    0.000000    5.549999
   -0.212238    0.122536    0.000000    5.549999
    0.000000   -0.245072    0.000000    5.549999
    0.000000    0.245072    0.000000    5.549999
    0.212238   -0.122536    0.000000    5.549999
    0.212238    0.122536    0.000000    5.549999
    0.000000    0.000000    0.418879    2.849658
    0.000000    0.000000   -0.418879    2.849658
   -0.212238   -0.122536    0.000000    5.549999
   -0.212238    0.122536    0.000000    5.549999
    0.000000   -0.245072    0.000000    5.549999
    0.000000    0.245072    0.000000    5.549999
    0.212238   -0.122536    0.000000    5.549999
    0.212238    0.122536    0.000000    5.549999
    0.000000    0.000000    0.418879    2.849658
    0.000000    0.000000   -0.418879    2.849658
   -0.212238   -0.122536    0.000000    5.549999
   -0.212238    0.122536    0.000000    5.549999
    0.000000   -0.245072    0.000000    5.549999
    0.000000    0.245072    0.000000    5.549999
    0.212238   -0.122536    0.000000    5.549999
    0.212238    0.122536    0.000000    5.549999
    0.000000    0.000000    0.418879    2.849658
    0.000000    0.000000   -0.418879    2.849658
   -0.212238   -0.122536    0.000000    5.549999
    0.000000   -0.245072    0.000000    5.549999
    0.212238   -0.122536    0.000000    5.549999
    0.212238    0.122536    0.000000    5.549999
   -0.212238    0.122536    0.000000    5.549999
    0.000000    0.245072    0.000000    5.549999
    0.000000    0.000000    0.418879    2.849658
    0.000000    0.000000   -0.418879    2.849658
   -0.212238   -0.122536    0.000000    5.549999
   -0.212238    0.122536    0.000000    5.549999
    0.000000    0.245072    0.000000    5.549999
    0.212238    0.122536    0.000000    5.549999
    0.000000   -0.245072    0.000000    5.549999
    0.212238   -0.122536    0.000000    5.549999
    0.000000    0.000000    0.418879    2.849658
    0.000000    0.000000   -0.418879    2.849658
   -0.212238   -0.122536    0.000000    5.549999
   -0.212238    0.122536    0.000000    5.549999
    0.000000   -0.245072    0.000000    5.549999
    0.000000    0.245072    0.000000    5.549999
    0.212238   -0.122536    0.000000    5.549999
    0.212238    0.122536    0.000000    5.549999
    0.000000    0.000000    0.418879    2.849658
    0.000000    0.000000   -0.418879    2.849658
   -0.212238   -0.122536    0.000000    5.549999
   -0.212238    0.122536    0.000000    5.549999
    0.000000   -0.245072    0.000000    5.549999
    0.000000    0.245072    0.000000    5.549999
    0.212238   -0.122536    0.000000    5.549999
    0.212238    0.122536    0.000000    5.549999
    0.000000    0.000000    0.418879    2.849658
    0.000000    0.000000   -0.418879    2.849658
   -0.212238   -0.122536    0.000000    5.549999
   -0.212238    0.122536    0.000000    5.549999
    0.000000   -0.245072    0.000000    5.549999
    0.000000    0.245072    0.000000    5.549999
    0.212238   -0.122536    0.000000    5.549999
    0.212238    0.122536    0.000000    5.549999
    0.000000    0.000000    0.418879    2.849658
    0.000000    0.000000   -0.418879    2.849658
   -0.212238   -0.122536    0.000000    5.549999
   -0.212238    0.122536    0.000000    5.549999
    0.000000   -0.245072    0.000000    5.549999
    0.000000    0.245072    0.000000    5.549999
    0.212238   -0.122536    0.000000    5.549999
    0.212238    0.122536    0.000000    5.549999
    0.000000    0.000000    0.418879    2.849658
    0.000000    0.000000   -0.418879    2.849658
   -0.212238   -0.122536    0.000000    5.549999
   -0.212238    0.122536    0.000000    5.549999
    0.000000   -0.245072    0.000000    5.549999
    0.000000    0.245072    0.000000    5.549999
    0.212238   -0.122536    0.000000    5.549999
    0.212238    0.122536    0.000000    5.549999
    0.000000    0.000000    0.418879    2.849658
    0.000000    0.000000   -0.418879    2.849658
   -0.212238   -0.122536    0.000000    5.549999
   -0.212238    0.122536    0.000000    5.549999
    0.000000   -0.245072    0.000000    5.549999
    0.000000    0.245072    0.000000    5.549999
    0.212238   -0.122536    0.000000    5.549999
    0.212238    0.122536    0.000000    5.549999
    0.000000    0.000000    0.418879    2.849658
    0.000000    0.000000   -0.418879    2.849658
   -0.212238   -0.122536    0.000000    5.549999
   -0.212238    0.122536    0.000000    5.549999
    0.000000   -0.245072    0.000000    5.549999
    0.000000    0.245072    0.000000    5.549999
    0.212238   -0.122536    0.000000    5.549999
    0.212238    0.122536    0.000000    5.549999
    0.000000    0.000000    0.418879    2.849658
    0.000000    0.000000   -0.418879    2.849658
   -0.212238   -0.122536    0.000000    5.549999
   -0.212238    0.122536    0.000000    5.549999
    0.000000   -0.245072    0.000000    5.549999
    0.000000    0.245072    0.000000    5.549999
    0.212238   -0.122536    0.000000    5.549999
    0.212238    0.122536    0.000000    5.549999
    0.000000    0.000000    0.418879    2.849658
    0.000000    0.000000   -0.418879    2.849658
   -0.212238   -0.122536    0.000000    5.549999
   -0.212238    0.122536    0.000000    5.549999
    0.000000   -0.245072    0.000000    5.549999
    0.000000    0.245072    0.000000    5.549999
    0.212238   -0.122536    0.000000    5.549999
    0.212238    0.122536    0.000000    5.549999
    0.000000    0.000000    0.418879    2.849658
    0.000000    0.000000   -0.418879    2.849658
   -0.212238   -0.122536    0.000000    5.549999
   -0.212238    0.122536    0.000000    5.549999
    0.000000   -0.245072    0.000000    5.549999
    0.000000    0.245072    0.000000    5.549999
    0.212238   -0.122536    0.000000    5.549999
    0.212238    0.122536    0.000000    5.549999
    0.000000    0.000000    0.418879    2.849658
    0.000000    0.000000   -0.418879    2.849658
   -0.212238   -0.122536    0.000000    5.549999
    0.000000   -0.245072    0.000000    5.549999
    0.212238   -0.122536    0.000000    5.549999
    0.212238    0.122536    0.000000    5.549999
   -0.212238    0.122536    0.000000    5.549999
    0.000000    0.245072    0.000000    5.549999
    0.000000    0.000000    0.418879    2.849658
    0.000000    0.000000   -0.418879    2.849658
   -0.212238   -0.122536    0.000000    5.549999
   -0.212238    0.122536    0.000000    5.549999
    0.000000    0.245072    0.000000    5.549999
    0.212238    0.122536    0.000000    5.549999
    0.000000   -0.245072    0.000000    5.549999
    0.212238   -0.122536    0.000000    5.549999
    0.000000    0.000000    0.418879    2.849658
    0.000000    0.000000   -0.418879    2.849658
   -0.212238   -0.122536    0.000000    5.549999
   -0.212238    0.122536    0.000000    5.549999
    0.000000   -0.245072    0.000000    5.549999
    0.000000    0.245072    0.000000    5.549999
    0.212238   -0.122536    0.000000    5.549999
    0.212238    0.122536    0.000000    5.549999
    0.000000    0.000000    0.418879    2.849658
    0.000000    0.000000   -0.418879    2.849658
   -0.212238   -0.122536    0.000000    5.549999
   -0.212238    0.122536    0.000000    5.549999
    0.000000   -0.245072    0.000000    5.549999
    0.000000    0.245072    0.000000    5.549999
    0.212238   -0.122536    0.000000    5.549999
    0.212238    0.122536    0.000000    5.549999
    0.000000    0.000000    0.418879    2.849658
    0.000000    0.000000   -0.418879    2.849658
   -0.212238   -0.122536    0.000000    5.549999
   -0.212238    0.122536    0.000000    5.549999
    0.000000   -0.245072    0.000000    5.549999
    0.000000    0.245072    0.000000    5.549999
    0.212238   -0.122536    0.000000    5.549999
    0.212238    0.122536    0.000000    5.549999
    0.000000    0.000000    0.418879    2.849658
    0.000000    0.000000   -0.418879    2.849658
   -0.212238   -0.122536    0.000000    5.549999
   -0.212238    0.122536    0.000000    5.549999
    0.000000   -0.245072    0.000000    5.549999
    0.000000    0.245072    0.000000    5.549999
    0.212238   -0.122536    0.000000    5.549999
    0.212238    0.122536    0.000000    5.549999
    0.000000    0.000000    0.418879    2.849658
    0.000000    0.000000   -0.418879    2.849658
   -0.212238   -0.122536    0.000000    5.549999
   -0.212238    0.122536    0.000000    5.549999
    0.000000   -0.245072    0.000000    5.549999
    0.000000    0.245072    0.000000    5.549999
    0.212238   -0.122536    0.000000    5.549999
    0.212238    0.122536    0.000000    5.549999
    0.000000    0.000000    0.418879    2.849658
    0.000000    0.000000   -0.418879    2.849658
   -0.212238   -0.122536    0.000000    5.549999
   -0.212238    0.122536    0.000000    5.549999
    0.000000   -0.245072    0.000000    5.549999
    0.000000    0.245072    0.000000    5.549999
    0.212238   -0.122536    0.000000    5.549999
    0.212238    0.122536    0.000000    5.549999
    0.000000    0.000000    0.418879    2.849658
    0.000000    0.000000   -0.418879    2.849658
   -0.212238   -0.122536    0.000000    5.549999
   -0.212238    0.122536    0.000000    5.549999
    0.000000   -0.245072    0.000000    5.549999
    0.000000    0.245072    0.000000    5.549999
    0.212238   -0.122536    0.000000    5.549999
    0.212238    0.122536    0.000000    5.549999
    0.000000    0.000000    0.418879    2.849658
    0.000000    0.000000   -0.418879    2.849658
   -0.212238   -0.122536    0.000000    5.549999
   -0.212238    0.122536    0.000000    5.549999
    0.000000   -0.245072    0.000000    5.549999
    0.000000    0.245072    0.000000    5.549999
    0.212238   -0.122536    0.000000    5.549999
    0.212238    0.122536    0.000000    5.549999
    0.000000    0.000000    0.418879    2.849658
    0.000000    0.000000   -0.418879    2.849658
   -0.212238   -0.122536    0.000000    5.549999
   -0.212238    0.122536    0.000000    5.549999
    0.000000   -0.245072    0.000000    5.549999
    0.000000    0.245072    0.000000    5.549999
    0.212238   -0.122536    0.000000    5.549999
    0.212238    0.122536    0.000000    5.549999
    0.000000    0.000000    0.418879    2.849658
    0.000000    0.000000   -0.418879    2.849658
   -0.212238   -0.122536    0.000000    5.549999
   -0.212238    0.122536    0.000000    5.549999
    0.000000   -0.245072    0.000000    5.549999
    0.000000    0.245072    0.000000    5.549999
    0.212238   -0.122536    0.000000    5.549999
    0.212238    0.122536    0.000000    5.549999
    0.000000    0.000000    0.418879    2.849658
    0.000000    0.000000   -0.418879    2.849658
   -0.212238   -0.122536    0.000000    5.549999
    0.000000   -0.245072    0.000000    5.549999
    0.212238   -0.122536    0.000000    5.549999
    0.212238    0.122536    0.000000    5.549999
   -0.212238    0.122536    0.000000    5.549999
    0.000000    0.245072    0.000000    5.549999
    0.000000    0.000000    0.418879    2.849658
    0.000000    0.000000   -0.418879    2.849658
   -0.212238   -0.122536    0.000000    5.549999
   -0.212238    0.122536    0.000000    5.549999
    0.000000    0.245072    0.000000    5.549999
    0.212238    0.122536    0.000000    5.549999
    0.000000   -0.245072    0.000000    5.549999
    0.212238   -0.122536    0.000000    5.549999
    0.000000    0.000000    0.418879    2.849658
    0.000000    0.000000   -0.418879    2.849658
   -0.212238   -0.122536    0.000000    5.549999
   -0.212238    0.122536    0.000000    5.549999
    0.000000   -0.245072    0.000000    5.549999
    0.000000    0.245072    0.000000    5.549999
    0.212238   -0.122536    0.000000    5.549999
    0.212238    0.122536    0.000000    5.549999
    0.000000    0.000000    0.418879    2.849658
    0.000000    0.000000   -0.418879    2.849658
   -0.212238   -0.122536    0.000000    5.549999
   -0.212238    0.122536    0.000000    5.549999
    0.000000   -0.245072    0.000000    5.549999
    0.000000    0.245072    0.000000    5.549999
    0.212238   -0.122536    0.000000    5.549999
    0.212238    0.122536    0.000000    5.549999
    0.000000    0.000000    0.418879    2.849658
    0.000000    0.000000   -0.418879    2.849658
   -0.212238   -0.122536    0.000000    5.549999
   -0.212238    0.122536    0.000000    5.549999
    0.000000   -0.245072    0.000000    5.549999
    0.000000    0.245072    0.000000    5.549999
    0.212238   -0.122536    0.000000    5.549999
    0.212238    0.122536    0.000000    5.549999
    0.000000    0.000000    0.418879    2.849658
    0.000000    0.000000   -0.418879    2.849658
   -0.212238   -0.122536    0.000000    5.549999
   -0.212238    0.122536    0.000000    5.549999
    0.000000   -0.245072    0.000000    5.549999
    0.000000    0.245072    0.000000    5.549999
    0.212238   -0.122536    0.000000    5.549999
    0.212238    0.122536    0.000000    5.549999
    0.000000    0.000000    0.418879    2.849658
    0.000000    0.000000   -0.418879    2.849658
   -0.212238   -0.122536    0.000000    5.549999
   -0.212238    0.122536    0.000000    5.549999
    0.000000   -0.245072    0.000000    5.549999
    0.000000    0.245072    0.000000    5.549999
    0.212238   -0.122536    0.000000    5.549999
    0.212238    0.122536    0.000000    5.549999
    0.000000    0.000000    0.418879    2.849658
    0.000000    0.000000   -0.418879    2.849658
   -0.212238   -0.122536    0.000000    5.549999
   -0.212238    0.122536    0.000000    5.549999
    0.000000   -0.245072    0.000000    5.549999
    0.000000    0.245072    0.000000    5.549999
    0.212238   -0.122536    0.000000    5.549999
    0.212238    0.122536    0.000000    5.549999
    0.000000    0.000000    0.418879    2.849658
    0.000000    0.000000   -0.418879    2.849658
   -0.212238   -0.122536    0.000000    5.549999
   -0.212238    0.122536    0.000000    5.549999
    0.000000   -0.245072    0.000000    5.549999
    0.000000    0.245072    0.000000    5.549999
    0.212238   -0.122536    0.000000    5.549999
    0.212238    0.122536    0.000000    5.549999
    0.000000    0.000000    0.418879    2.849658
    0.000000    0.000000   -0.418879    2.849658
   -0.212238   -0.122536    0.000000    5.549999
   -0.212238    0.122536    0.000000    5.549999
    0.000000   -0.245072    0.000000    5.549999
    0.000000    0.245072    0.000000    5.549999
    0.212238   -0.122536    0.000000    5.549999
    0.212238    0.122536    0.000000    5.549999
    0.000000    0.000000    0.418879    2.849658
    0.000000    0.000000   -0.418879    2.849658
   -0.212238   -0.122536    0.000000    5.549999
   -0.212238    0.122536    0.000000    5.549999
    0.000000   -0.245072    0.000000    5.549999
    0.000000    0.245072    0.000000    5.549999
    0.212238   -0.122536    0.000000    5.549999
    0.212238    0.122536    0.000000    5.549999
    0.000000    0.000000    0.418879    2.849658
    0.000000    0.000000   -0.418879    2.849658
   -0.212238   -0.122536    0.000000    5.549999
   -0.212238    0.122536    0.000000    5.549999
    0.000000   -0.245072    0.000000    5.549999
    0.000000    0.245072    0.000000    5.549999
    0.212238   -0.122536    0.000000    5.549999
    0.212238    0.122536    0.000000    5.549999
    0.000000    0.000000    0.418879    2.849658
    0.000000    0.000000   -0.418879    2.849658
   -0.212238   -0.122536    0.000000    5.549999
    0.000000   -0.245072    0.000000    5.549999
    0.212238   -0.122536    0.000000    5.549999
    0.212238    0.122536    0.000000    5.549999
   -0.212238    0.122536    0.000000    5.549999
    0.000000    0.245072    0.000000    5.549999
    0.000000    0.000000    0.418879    2.849658
    0.000000    0.000000   -0.418879    2.849658
   -0.212238   -0.122536    0.000000    5.549999
   -0.212238    0.122536    0.000000    5.549999
    0.000000    0.245072    0.000000    5.549999
    0.212238    0.122536    0.000000    5.549999
    0.000000   -0.245072    0.000000    5.549999
    0.212238   -0.122536    0.000000    5.549999
    0.000000    0.000000    0.418879    2.849658
    0.000000    0.000000   -0.418879    2.849658
   -0.212238   -0.122536    0.000000    5.549999
   -0.212238    0.122536    0.000000    5.549999
    0.000000   -0.245072    0.000000    5.549999
    0.000000    0.245072    0.000000    5.549999
    0.212238   -0.122536    0.000000    5.549999
    0.212238    0.122536    0.000000    5.549999
    0.000000    0.000000    0.418879    2.849658
    0.000000    0.000000   -0.418879    2.849658
   -0.212238   -0.122536    0.000000    5.549999
   -0.212238    0.122536    0.000000    5.549999
    0.000000   -0.245072    0.000000    5.549999
    0.000000    0.245072    0.000000    5.549999
    0.212238   -0.122536    0.000000    5.549999
    0.212238    0.122536    0.000000    5.549999
    0.000000    0.000000    0.418879    2.849658
    0.000000    0.000000   -0.418879    2.849658
   -0.212238   -0.122536    0.000000    5.549999
   -0.212238    0.122536    0.000000    5.549999
    0.000000   -0.245072    0.000000    5.549999
    0.000000    0.245072    0.000000    5.549999
    0.212238   -0.122536    0.000000    5.549999
    0.212238    0.122536    0.000000    5.549999
    0.000000    0.000000    0.418879    2.849658
    0.000000    0.000000   -0.418879    2.849658
   -0.212238   -0.122536    0.000000    5.549999
   -0.212238    0.122536    0.000000    5.549999
    0.000000   -0.245072    0.000000    5.549999
    0.000000    0.245072    0.000000    5.549999
    0.212238   -0.122536    0.000000    5.549999
    0.212238    0.122536    0.000000    5.549999
    0.000000    0.000000    0.418879    2.849658
    0.000000    0.000000   -0.418879    2.849658
   -0.212238   -0.122536    0.000000    5.549999
   -0.212238    0.122536    0.000000    5.549999
    0.000000   -0.245072    0.000000    5.549999
    0.000000    0.245072    0.000000    5.549999
    0.212238   -0.122536    0.000000    5.549999
    0.212238    0.122536    0.000000    5.549999
    0.000000    0.000000    0.418879    2.849658
    0.000000    0.000000   -0.418879    2.849658
   -0.212238   -0.122536    0.000000    5.549999
   -0.212238    0.122536    0.000000    5.549999
    0.000000   -0.245072    0.000000    5.549999
    0.000000    0.245072    0.000000    5.549999
    0.212238   -0.122536    0.000000    5.549999
    0.212238    0.122536    0.000000    5.549999
    0.000000    0.000000    0.418879    2.849658
    0.000000    0.000000   -0.418879    2.849658
   -0.212238   -0.122536    0.000000    5.549999
   -0.212238    0.122536    0.000000    5.549999
    0.000000   -0.245072    0.000000    5.549999
    0.000000    0.245072    0.000000    5.549999
    0.212238   -0.122536    0.000000    5.549999
    0.212238    0.122536    0.000000    5.549999
    0.000000    0.000000    0.418879    2.849658
    0.000000    0.000000   -0.418879    2.849658
   -0.212238   -0.122536    0.000000    5.549999
   -0.212238    0.122536    0.000000    5.549999
    0.000000   -0.245072    0.000000    5.549999
    0.000000    0.245072    0.000000    5.549999
    0.212238   -0.122536    0.000000    5.549999
    0.212238    0.122536    0.000000    5.549999
    0.000000    0.000000    0.418879    2.849658
    0.000000    0.000000   -0.418879    2.849658
   -0.212238   -0.122536    0.000000    5.549999
   -0.212238    0.122536    0.000000    5.549999
    0.000000   -0.245072    0.000000    5.549999
    0.000000    0.245072    0.000000    5.549999
    0.212238   -0.122536    0.000000    5.549999
    0.212238    0.122536    0.000000    5.549999
    0.000000    0.000000    0.418879    2.849658
    0.000000    0.000000   -0.418879    2.849658
   -0.212238   -0.122536    0.000000    5.549999
   -0.212238    0.122536    0.000000    5.549999
    0.000000   -0.245072    0.000000    5.549999
    0.000000    0.245072    0.000000    5.549999
    0.212238   -0.122536    0.000000    5.549999
    0.212238    0.122536    0.000000    5.549999
    0.000000    0.000000    0.418879    2.849658
    0.000000    0.000000   -0.418879    2.849658
   -0.212238   -0.122536    0.000000    5.549999
    0.000000   -0.245072    0.000000    5.549999
    0.212238   -0.122536    0.000000    5.549999
    0.212238    0.122536    0.000000    5.549999
   -0.212238    0.122536    0.000000    5.549999
    0.000000    0.245072    0.000000    5.549999
    0.000000    0.000000    0.418879    2.849658
    0.000000    0.000000   -0.418879    2.849658
   -0.212238   -0.122536    0.000000    5.549999
   -0.212238    0.122536    0.000000    5.549999
    0.000000    0.245072    0.000000    5.549999
    0.212238    0.122536    0.000000    5.549999
    0.000000   -0.245072    0.000000    5.549999
    0.212238   -0.122536    0.000000    5.549999
    0.000000    0.000000    0.418879    2.849658
    0.000000    0.000000   -0.418879    2.849658
   -0.212238   -0.122536    0.000000    5.549999
   -0.212238    0.122536    0.000000    5.549999
    0.000000   -0.245072    0.000000    5.549999
    0.000000    0.245072    0.000000    5.549999
    0.212238   -0.122536    0.000000    5.549999
    0.212238    0.122536    0.000000    5.549999
    0.000000    0.000000    0.418879    2.849658
    0.000000    0.000000   -0.418879    2.849658
   -0.212238   -0.122536    0.000000    5.549999
   -0.212238    0.122536    0.000000    5.549999
    0.000000   -0.245072    0.000000    5.549999
    0.000000    0.245072    0.000000    5.549999
    0.212238   -0.122536    0.000000    5.549999
    0.212238    0.122536    0.000000    5.549999
    0.000000    0.000000    0.418879    2.849658
    0.000000    0.000000   -0.418879    2.849658
   -0.212238   -0.122536    0.000000    5.549999
   -0.212238    0.122536    0.000000    5.549999
    0.000000   -0.245072    0.000000    5.549999
    0.000000    0.245072    0.000000    5.549999
    0.212238   -0.122536    0.000000    5.549999
    0.212238    0.122536    0.000000    5.549999
    0.000000    0.000000    0.418879    2.849658
    0.000000    0.000000   -0.418879    2.849658
   -0.212238   -0.122536    0.000000    5.549999
   -0.212238    0.122536    0.000000    5.549999
    0.000000   -0.245072    0.000000    5.549999
    0.000000    0.245072    0.000000    5.549999
    0.212238   -0.122536    0.000000    5.549999
    0.212238    0.122536    0.000000    5.549999
    0.000000    0.000000    0.418879    2.849658
    0.000000    0.000000   -0.418879    2.849658
   -0.212238   -0.122536    0.000000    5.549999
   -0.212238    0.122536    0.000000    5.549999
    0.000000   -0.245072    0.000000    5.549999
    0.000000    0.245072    0.000000    5.549999
    0.212238   -0.122536    0.000000    5.549999
    0.212238    0.122536    0.000000    5.549999
    0.000000    0.000000    0.418879    2.849658
    0.000000    0.000000   -0.418879    2.849658
   -0.212238   -0.122536    0.000000    5.549999
   -0.212238    0.122536    0.000000    5.549999
    0.000000   -0.245072    0.000000    5.549999
    0.000000    0.245072    0.000000    5.549999
    0.212238   -0.122536    0.000000    5.549999
    0.212238    0.122536    0.000000    5.549999
    0.000000    0.000000    0.418879    2.849658
    0.000000    0.000000   -0.418879    2.849658
   -0.212238   -0.122536    0.000000    5.549999
   -0.212238    0.122536    0.000000    5.549999
    0.000000   -0.245072    0.000000    5.549999
    0.000000    0.245072    0.000000    5.549999
    0.212238   -0.122536    0.000000    5.549999
    0.212238    0.122536    0.000000    5.549999
    0.000000    0.000000    0.418879    2.849658
    0.000000    0.000000   -0.418879    2.849658
   -0.212238   -0.122536    0.000000    5.549999
   -0.212238    0.122536    0.000000    5.549999
    0.000000   -0.245072    0.000000    5.549999
    0.000000    0.245072    0.000000    5.549999
    0.212238   -0.122536    0.000000    5.549999
    0.212238    0.122536    0.000000    5.549999
    0.000000    0.000000    0.418879    2.849658
    0.000000    0.000000   -0.418879    2.849658
   -0.212238   -0.122536    0.000000    5.549999
   -0.212238    0.122536    0.000000    5.549999
    0.000000   -0.245072    0.000000    5.549999
    0.000000    0.245072    0.000000    5.549999
    0.212238   -0.122536    0.000000    5.549999
    0.212238    0.122536    0.000000    5.549999
    0.000000    0.000000    0.418879    2.849658
    0.000000    0.000000   -0.418879    2.849658
   -0.212238   -0.122536    0.000000    5.549999
   -0.212238    0.122536    0.000000    5.549999
    0.000000   -0.245072    0.000000    5.549999
    0.000000    0.245072    0.000000    5.549999
    0.212238   -0.122536    0.000000    5.549999
    0.212238    0.122536    0.000000    5.549999
    0.000000    0.000000    0.418879    2.849658
    0.000000    0.000000   -0.418879    2.849658
   -0.212238   -0.122536    0.000000    5.549999
    0.000000   -0.245072    0.000000    5.549999
    0.212238   -0.122536    0.000000    5.549999
    0.212238    0.122536    0.000000    5.549999
   -0.212238    0.122536    0.000000    5.549999
    0.000000    0.245072    0.000000    5.549999
    0.000000    0.000000    0.418879    2.849658
    0.000000    0.000000   -0.418879    2.849658
   -0.212238   -0.122536    0.000000    5.549999
   -0.212238    0.122536    0.000000    5.549999
    0.000000    0.245072    0.000000    5.549999
    0.212238    0.122536    0.000000    5.549999
    0.000000   -0.245072    0.000000    5.549999
    0.212238   -0.122536    0.000000    5.549999
    0.000000    0.000000    0.418879    2.849658
    0.000000    0.000000   -0.418879    2.849658
   -0.212238   -0.122536    0.000000    5.549999
   -0.212238    0.122536    0.000000    5.549999
    0.000000   -0.245072    0.000000    5.549999
    0.000000    0.245072    0.000000    5.549999
    0.212238   -0.122536    0.000000    5.549999
    0.212238    0.122536    0.000000    5.549999
    0.000000    0.000000    0.418879    2.849658
    0.000000    0.000000   -0.418879    2.849658
   -0.212238   -0.122536    0.000000    5.549999
   -0.212238    0.122536    0.000000    5.549999
    0.000000   -0.245072    0.000000    5.549999
    0.000000    0.245072    0.000000    5.549999
    0.212238   -0.122536    0.000000    5.549999
    0.212238    0.122536    0.000000    5.549999
    0.000000    0.000000    0.418879    2.849658
    0.000000    0.000000   -0.418879    2.849658
   -0.212238   -0.122536    0.000000    5.549999
   -0.212238    0.122536    0.000000    5.549999
    0.000000   -0.245072    0.000000    5.549999
    0.000000    0.245072    0.000000    5.549999
    0.212238   -0.122536    0.000000    5.549999
    0.212238    0.122536    0.000000    5.549999
    0.000000    0.000000    0.418879    2.849658
    0.000000    0.000000   -0.418879    2.849658
   -0.212238   -0.122536    0.000000    5.549999
   -0.212238    0.122536    0.000000    5.549999
    0.000000   -0.245072    0.000000    5.549999
    0.000000    0.245072    0.000000    5.549999
    0.212238   -0.122536    0.000000    5.549999
    0.212238    0.122536    0.000000    5.549999
    0.000000    0.000000    0.418879    2.849658
    0.000000    0.000000   -0.418879    2.849658
   -0.212238   -0.122536    0.000000    5.549999
   -0.212238    0.122536    0.000000    5.549999
    0.000000   -0.245072    0.000000    5.549999
    0.000000    0.245072    0.000000    5.549999
    0.212238   -0.122536    0.000000    5.549999
    0.212238    0.122536    0.000000    5.549999
    0.000000    0.000000    0.418879    2.849658
    0.000000    0.000000   -0.418879    2.849658
   -0.212238   -0.122536    0.000000    5.549999
   -0.212238    0.122536    0.000000    5.549999
    0.000000   -0.245072    0.000000    5.549999
    0.000000    0.245072    0.000000    5.549999
    0.212238   -0.122536    0.000000    5.549999
    0.212238    0.122536    0.000000    5.549999
    0.000000    0.000000    0.418879    2.849658
    0.000000    0.000000   -0.418879    2.849658
   -0.212238   -0.122536    0.000000    5.549999
   -0.212238    0.122536    0.000000    5.549999
    0.000000   -0.245072    0.000000    5.549999
    0.000000    0.245072    0.000000    5.549999
    0.212238   -0.122536    0.000000    5.549999
    0.212238    0.122536    0.000000    5.549999
    0.000000    0.000000    0.418879    2.849658
    0.000000    0.000000   -0.418879    2.849658
   -0.212238   -0.122536    0.000000    5.549999
   -0.212238    0.122536    0.000000    5.549999
    0.000000   -0.245072    0.000000    5.549999
    0.000000    0.245072    0.000000    5.549999
    0.212238   -0.122536    0.000000    5.549999
    0.212238    0.122536    0.000000    5.549999
    0.000000    0.000000    0.418879    2.849658
    0.000000    0.000000   -0.418879    2.849658
   -0.212238   -0.122536    0.000000    5.549999
   -0.212238    0.122536    0.000000    5.549999
    0.000000   -0.245072    0.000000    5.549999
    0.000000    0.245072    0.000000    5.549999
    0.212238   -0.122536    0.000000    5.549999
    0.212238    0.122536    0.000000    5.549999
    0.000000    0.000000    0.418879    2.849658
    0.000000    0.000000   -0.418879    2.849658
   -0.212238   -0.122536    0.000000    5.549999
   -0.212238    0.122536    0.000000    5.549999
    0.000000   -0.245072    0.000000    5.549999
    0.000000    0.245072    0.000000    5.549999
    0.212238   -0.122536    0.000000    5.549999
    0.212238    0.122536    0.000000    5.549999
    0.000000    0.000000    0.418879    2.849658
    0.000000    0.000000   -0.418879    2.849658
   -0.212238   -0.122536    0.000000    5.549999
    0.000000   -0.245072    0.000000    5.549999
    0.212238   -0.122536    0.000000    5.549999
    0.212238    0.122536    0.000000    5.549999
   -0.212238    0.122536    0.000000    5.549999
    0.000000    0.245072    0.000000    5.549999
    0.000000    0.000000    0.418879    2.849658
    0.000000    0.000000   -0.418879    2.849658
   -0.212238   -0.122536    0.000000    5.549999
   -0.212238    0.122536    0.000000    5.549999
    0.000000    0.245072    0.000000    5.549999
    0.212238    0.122536    0.000000    5.549999
    0.000000   -0.245072    0.000000    5.549999
    0.212238   -0.122536    0.000000    5.549999
    0.000000    0.000000    0.418879    2.849658
    0.000000    0.000000   -0.418879    2.849658
   -0.212238   -0.122536    0.000000    5.549999
   -0.212238    0.122536    0.000000    5.549999
    0.000000   -0.245072    0.000000    5.549999
    0.000000    0.245072    0.000000    5.549999
    0.212238   -0.122536    0.000000    5.549999
    0.212238    0.122536    0.000000    5.549999
    0.000000    0.000000    0.418879    2.849658
    0.000000    0.000000   -0.418879    2.849658
   -0.212238   -0.122536    0.000000    5.549999
   -0.212238    0.122536    0.000000    5.549999
    0.000000   -0.245072    0.000000    5.549999
    0.000000    0.245072    0.000000    5.549999
    0.212238   -0.122536    0.000000    5.549999
    0.212238    0.122536    0.000000    5.549999
    0.000000    0.000000    0.418879    2.849658
    0.000000    0.000000   -0.418879    2.849658
   -0.212238   -0.122536    0.000000    5.549999
   -0.212238    0.122536    0.000000    5.549999
    0.000000   -0.245072    0.000000    5.549999
    0.000000    0.245072    0.000000    5.549999
    0.212238   -0.122536    0.000000    5.549999
    0.212238    0.122536    0.000000    5.549999
    0.000000    0.000000    0.418879    2.849658
    0.000000    0.000000   -0.418879    2.849658
   -0.212238   -0.122536    0.000000    5.549999
   -0.212238    0.122536    0.000000    5.549999
    0.000000   -0.245072    0.000000    5.549999
    0.000000    0.245072    0.000000    5.549999
    0.212238   -0.122536    0.000000    5.549999
    0.212238    0.122536    0.000000    5.549999
    0.000000    0.000000    0.418879    2.849658
    0.000000    0.000000   -0.418879    2.849658
   -0.212238   -0.122536    0.000000    5.549999
   -0.212238    0.122536    0.000000    5.549999
    0.000000   -0.245072    0.000000    5.549999
    0.000000    0.245072    0.000000    5.549999
    0.212238   -0.122536    0.000000    5.549999
    0.212238    0.122536    0.000000    5.549999
    0.000000    0.000000    0.418879    2.849658
    0.000000    0.000000   -0.418879    2.849658
   -0.212238   -0.122536    0.000000    5.549999
   -0.212238    0.122536    0.000000    5.549999
    0.000000   -0.245072    0.000000    5.549999
    0.000000    0.245072    0.000000    5.549999
    0.212238   -0.122536    0.000000    5.549999
    0.212238    0.122536    0.000000    5.549999
    0.000000    0.000000    0.418879    2.849658
    0.000000    0.000000   -0.418879    2.849658
   -0.212238   -0.122536    0.000000    5.549999
   -0.212238    0.122536    0.000000    5.549999
    0.000000   -0.245072    0.000000    5.549999
    0.000000    0.245072    0.000000    5.549999
    0.212238   -0.122536    0.000000    5.549999
    0.212238    0.122536    0.000000    5.549999
    0.000000    0.000000    0.418879    2.849658
    0.000000    0.000000   -0.418879    2.849658
   -0.212238   -0.122536    0.000000    5.549999
   -0.212238    0.122536    0.000000    5.549999
    0.000000   -0.245072    0.000000    5.549999
    0.000000    0.245072    0.000000    5.549999
    0.212238   -0.122536    0.000000    5.549999
    0.212238    0.122536    0.000000    5.549999
    0.000000    0.000000    0.418879    2.849658
    0.000000    0.000000   -0.418879    2.849658
   -0.212238   -0.122536    0.000000    5.549999
   -0.212238    0.122536    0.000000    5.549999
    0.000000   -0.245072    0.000000    5.549999
    0.000000    0.245072    0.000000    5.549999
    0.212238   -0.122536    0.000000    5.549999
    0.212238    0.122536    0.000000    5.549999
    0.000000    0.000000    0.418879    2.849658
    0.000000    0.000000   -0.418879    2.849658
   -0.212238   -0.122536    0.000000    5.549999
   -0.212238    0.122536    0.000000    5.549999
    0.000000   -0.245072    0.000000    5.549999
    0.000000    0.245072    0.000000    5.549999
    0.212238   -0.122536    0.000000    5.549999
    0.212238    0.122536    0.000000    5.549999
    0.000000    0.000000    0.418879    2.849658
    0.000000    0.000000   -0.418879    2.849658
   -0.212238   -0.122536    0.000000    5.549999
    0.000000   -0.245072    0.000000    5.549999
    0.212238   -0.122536    0.000000    5.549999
    0.212238    0.122536    0.000000    5.549999
   -0.212238    0.122536    0.000000    5.549999
    0.000000    0.245072    0.000000    5.549999
    0.000000    0.000000    0.418879    2.849658
    0.000000    0.000000   -0.418879    2.849658
   -0.212238   -0.122536    0.000000    5.549999
   -0.212238    0.122536    0.000000    5.549999
    0.000000    0.245072    0.000000    5.549999
    0.212238    0.122536    0.000000    5.549999
    0.000000   -0.245072    0.000000    5.549999
    0.212238   -0.122536    0.000000    5.549999
    0.000000    0.000000    0.418879    2.849658
    0.000000    0.000000   -0.418879    2.849658
   -0.212238   -0.122536    0.000000    5.549999
   -0.212238    0.122536    0.000000    5.549999
    0.000000   -0.245072    0.000000    5.549999
    0.000000    0.245072    0.000000    5.549999
    0.212238   -0.122536    0.000000    5.549999
    0.212238    0.122536    0.000000    5.549999
    0.000000    0.000000    0.418879    2.849658
    0.000000    0.000000   -0.418879    2.849658
   -0.212238   -0.122536    0.000000    5.549999
   -0.212238    0.122536    0.000000    5.549999
    0.000000   -0.245072    0.000000    5.549999
    0.000000    0.245072    0.000000    5.549999
    0.212238   -0.122536    0.000000    5.549999
    0.212238    0.122536    0.000000    5.549999
    0.000000    0.000000    0.418879    2.849658
    0.000000    0.000000   -0.418879    2.849658
   -0.212238   -0.122536    0.000000    5.549999
   -0.212238    0.122536    0.000000    5.549999
    0.000000   -0.245072    0.000000    5.549999
    0.000000    0.245072    0.000000    5.549999
    0.212238   -0.122536    0.000000    5.549999
    0.212238    0.122536    0.000000    5.549999
    0.000000    0.000000    0.418879    2.849658
    0.000000    0.000000   -0.418879    2.849658
   -0.212238   -0.122536    0.000000    5.549999
   -0.212238    0.122536    0.000000    5.549999
    0.000000   -0.245072    0.000000    5.549999
    0.000000    0.245072    0.000000    5.549999
    0.212238   -0.122536    0.000000    5.549999
    0.212238    0.122536    0.000000    5.549999
    0.000000    0.000000    0.418879    2.849658
    0.000000    0.000000   -0.418879    2.849658
   -0.212238   -0.122536    0.000000    5.549999
   -0.212238    0.122536    0.000000    5.549999
    0.000000   -0.245072    0.000000    5.549999
    0.000000    0.245072    0.000000    5.549999
    0.212238   -0.122536    0.000000    5.549999
    0.212238    0.122536    0.000000    5.549999
    0.000000    0.000000    0.418879    2.849658
    0.000000    0.000000   -0.418879    2.849658
   -0.212238   -0.122536    0.000000    5.549999
   -0.212238    0.122536    0.000000    5.549999
    0.000000   -0.245072    0.000000    5.549999
    0.000000    0.245072    0.000000    5.549999
    0.212238   -0.122536    0.000000    5.549999
    0.212238    0.122536    0.000000    5.549999
    0.000000    0.000000    0.418879    2.849658
    0.000000    0.000000   -0.418879    2.849658
   -0.212238   -0.122536    0.000000    5.549999
   -0.212238    0.122536    0.000000    5.549999
    0.000000   -0.245072    0.000000    5.549999
    0.000000    0.245072    0.000000    5.549999
    0.212238   -0.122536    0.000000    5.549999
    0.212238    0.122536    0.000000    5.549999
    0.000000    0.000000    0.418879    2.849658
    0.000000    0.000000   -0.418879    2.849658
   -0.212238   -0.122536    0.000000    5.549999
   -0.212238    0.122536    0.000000    5.549999
    0.000000   -0.245072    0.000000    5.549999
    0.000000    0.245072    0.000000    5.549999
    0.212238   -0.122536    0.000000    5.549999
    0.212238    0.122536    0.000000    5.549999
    0.000000    0.000000    0.418879    2.849658
    0.000000    0.000000   -0.418879    2.849658
   -0.212238   -0.122536    0.000000    5.549999
   -0.212238    0.122536    0.000000    5.549999
    0.000000   -0.245072    0.000000    5.549999
    0.000000    0.245072    0.000000    5.549999
    0.212238   -0.122536    0.000000    5.549999
    0.212238    0.122536    0.000000    5.549999
    0.000000    0.000000    0.418879    2.849658
    0.000000    0.000000   -0.418879    2.849658
   -0.212238   -0.122536    0.000000    5.549999
   -0.212238    0.122536    0.000000    5.549999
    0.000000   -0.245072    0.000000    5.549999
    0.000000    0.245072    0.000000    5.549999
    0.212238   -0.122536    0.000000    5.549999
    0.212238    0.122536    0.000000    5.549999
    0.000000    0.000000    0.418879    2.849658
    0.000000    0.000000   -0.418879    2.849658
   -0.212238   -0.122536    0.000000    5.549999
    0.000000   -0.245072    0.000000    5.549999
    0.212238   -0.122536    0.000000    5.549999
    0.212238    0.122536    0.000000    5.549999
   -0.212238    0.122536    0.000000    5.549999
    0.000000    0.245072    0.000000    5.549999
    0.000000    0.000000    0.418879    2.849658
    0.000000    0.000000   -0.418879    2.849658
   -0.212238   -0.122536    0.000000    5.549999
   -0.212238    0.122536    0.000000    5.549999
    0.000000    0.245072    0.000000    5.549999
    0.212238    0.122536    0.000000    5.549999
    0.212238   -0.122536    0.000000    5.549999
    0.000000   -0.245072    0.000000    5.549999
    0.000000    0.000000    0.418879    2.849658
    0.000000    0.000000   -0.418879    2.849658
   -0.212238   -0.122536    0.000000    5.549999
   -0.212238    0.122536    0.000000    5.549999
    0.000000   -0.245072    0.000000    5.549999
    0.000000    0.245072    0.000000    5.549999
    0.212238   -0.122536    0.000000    5.549999
    0.212238    0.122536    0.000000    5.549999
    0.000000    0.000000    0.418879    2.849658
    0.000000    0.000000   -0.418879    2.849658
   -0.212238   -0.122536    0.000000    5.549999
   -0.212238    0.122536    0.000000    5.549999
    0.000000   -0.245072    0.000000    5.549999
    0.000000    0.245072    0.000000    5.549999
    0.212238   -0.122536    0.000000    5.549999
    0.212238    0.122536    0.000000    5.549999
    0.000000    0.000000    0.418879    2.849658
    0.000000    0.000000   -0.418879    2.849658
   -0.212238   -0.122536    0.000000    5.549999
   -0.212238    0.122536    0.000000    5.549999
    0.000000   -0.245072    0.000000    5.549999
    0.000000    0.245072    0.000000    5.549999
    0.212238   -0.122536    0.000000    5.549999
    0.212238    0.122536    0.000000    5.549999
    0.000000    0.000000    0.418879    2.849658
    0.000000    0.000000   -0.418879    2.849658
   -0.212238   -0.122536    0.000000    5.549999
   -0.212238    0.122536    0.000000    5.549999
    0.000000   -0.245072    0.000000    5.549999
    0.000000    0.245072    0.000000    5.549999
    0.212238   -0.122536    0.000000    5.549999
    0.212238    0.122536    0.000000    5.549999
    0.000000    0.000000    0.418879    2.849658
    0.000000    0.000000   -0.418879    2.849658
   -0.212238   -0.122536    0.000000    5.549999
   -0.212238    0.122536    0.000000    5.549999
    0.000000   -0.245072    0.000000    5.549999
    0.000000    0.245072    0.000000    5.549999
    0.212238   -0.122536    0.000000    5.549999
    0.212238    0.122536    0.000000    5.549999
    0.000000    0.000000    0.418879    2.849658
    0.000000    0.000000   -0.418879    2.849658
   -0.212238   -0.122536    0.000000    5.549999
   -0.212238    0.122536    0.000000    5.549999
    0.000000   -0.245072    0.000000    5.549999
    0.000000    0.245072    0.000000    5.549999
    0.212238   -0.122536    0.000000    5.549999
    0.212238    0.122536    0.000000    5.549999
    0.000000    0.000000    0.418879    2.849658
    0.000000    0.000000   -0.418879    2.849658
   -0.212238   -0.122536    0.000000    5.549999
   -0.212238    0.122536    0.000000    5.549999
    0.000000   -0.245072    0.000000    5.549999
    0.000000    0.245072    0.000000    5.549999
    0.212238   -0.122536    0.000000    5.549999
    0.212238    0.122536    0.000000    5.549999
    0.000000    0.000000    0.418879    2.849658
    0.000000    0.000000   -0.418879    2.849658
   -0.212238   -0.122536    0.000000    5.549999
   -0.212238    0.122536    0.000000    5.549999
    0.000000   -0.245072    0.000000    5.549999
    0.000000    0.245072    0.000000    5.549999
    0.212238   -0.122536    0.000000    5.549999
    0.212238    0.122536    0.000000    5.549999
    0.000000    0.000000    0.418879    2.849658
    0.000000    0.000000   -0.418879    2.849658
   -0.212238   -0.122536    0.000000    5.549999
   -0.212238    0.122536    0.000000    5.549999
    0.000000   -0.245072    0.000000    5.549999
    0.000000    0.245072    0.000000    5.549999
    0.212238   -0.122536    0.000000    5.549999
    0.212238    0.122536    0.000000    5.549999
    0.000000    0.000000    0.418879    2.849658
    0.000000    0.000000   -0.418879    2.849658
   -0.212238   -0.122536    0.000000    5.549999
   -0.212238    0.122536    0.000000    5.549999
    0.000000   -0.245072    0.000000    5.549999
    0.000000    0.245072    0.000000    5.549999
    0.212238   -0.122536    0.000000    5.549999
    0.212238    0.122536    0.000000    5.549999
    0.000000    0.000000    0.418879    2.849658
    0.000000    0.000000   -0.418879    2.849658
   -0.212238   -0.122536    0.000000    5.549999
    0.000000   -0.245072    0.000000    5.549999
    0.212238   -0.122536    0.000000    5.549999
    0.212238    0.122536    0.000000    5.549999
   -0.212238    0.122536    0.000000    5.549999
    0.000000    0.245072    0.000000    5.549999
    0.000000    0.000000    0.418879    2.849658
    0.000000    0.000000   -0.418879    2.849658
