 
             +---------------------------------------------------+
             |                                                   |
             |                   WANNIER90                       |
             |                                                   |
             +---------------------------------------------------+
             |                                                   |
             |        Welcome to the Maximally-Localized         |
             |        Generalized Wannier Functions code         |
             |            http://www.wannier.org                 |
             |                                                   |
             |                                                   |
             |  Wannier90 Developer Group:                       |
             |    Giovanni Pizzi    (EPFL)                       |
             |    Valerio Vitale    (Cambridge)                  |
             |    David Vanderbilt  (Rutgers University)         |
             |    Nicola Marzari    (EPFL)                       |
             |    Ivo Souza         (Universidad del Pais Vasco) |
             |    Arash A. Mostofi  (Imperial College London)    |
             |    Jonathan R. Yates (University of Oxford)       |
             |                                                   |
             |  For the full list of Wannier90 3.x authors,      |
             |  please check the code documentation and the      |
             |  README on the GitHub page of the code            |
             |                                                   |
             |                                                   |
             |  Please cite                                      |
             |                                                   |
             |  [ref] "Wannier90 as a community code:            |
             |        new features and applications",            |
             |        G. Pizzi et al., J. Phys. Cond. Matt. 32,  |
             |        165902 (2020).                             |
             |        http://doi.org/10.1088/1361-648X/ab51ff    |
             |                                                   |
             |  in any publications arising from the use of      |
             |  this code. For the method please cite            |
             |                                                   |
             |  [ref] "Maximally Localized Generalised Wannier   |
             |         Functions for Composite Energy Bands"     |
             |         N. Marzari and D. Vanderbilt              |
             |         Phys. Rev. B 56 12847 (1997)              |
             |                                                   |
             |  [ref] "Maximally Localized Wannier Functions     |
             |         for Entangled Energy Bands"               |
             |         I. Souza, N. Marzari and D. Vanderbilt    |
             |         Phys. Rev. B 65 035109 (2001)             |
             |                                                   |
             |                                                   |
             | Copyright (c) 1996-2020                           |
             |        The Wannier90 Developer Group and          |
             |        individual contributors                    |
             |                                                   |
             |      Release: 3.1.0        5th March    2020      |
             |                                                   |
             | This program is free software; you can            |
             | redistribute it and/or modify it under the terms  |
             | of the GNU General Public License as published by |
             | the Free Software Foundation; either version 2 of |
             | the License, or (at your option) any later version|
             |                                                   |
             | This program is distributed in the hope that it   |
             | will be useful, but WITHOUT ANY WARRANTY; without |
             | even the implied warranty of MERCHANTABILITY or   |
             | FITNESS FOR A PARTICULAR PURPOSE. See the GNU     |
             | General Public License for more details.          |
             |                                                   |
             | You should have received a copy of the GNU General|
             | Public License along with this program; if not,   |
             | write to the Free Software Foundation, Inc.,      |
             | 675 Mass Ave, Cambridge, MA 02139, USA.           |
             |                                                   |
             +---------------------------------------------------+
             |    Execution started on 13Jun2022 at 18:51:27     |
             +---------------------------------------------------+
 
 ******************************************************************************
 * -> Using CODATA 2006 constant values                                       *
 *    (http://physics.nist.gov/cuu/Constants/index.html)                      *
 * -> Using Bohr value from CODATA                                            *
 ******************************************************************************
 

 Wannier90 is running in LIBRARY MODE

 Setting up k-point neighbours...

 
                                    ------
                                    SYSTEM
                                    ------
 
                              Lattice Vectors (Ang)
                    a_1     2.467034   0.000000   0.000000
                    a_2    -1.233517   2.136514   0.000000
                    a_3     0.000000   0.000000  15.000000
 
                   Unit Cell Volume:      79.06277  (Ang^3)
 
                        Reciprocal-Space Vectors (Ang^-1)
                    b_1     2.546858   1.470429   0.000000
                    b_2     0.000000   2.940859   0.000000
                    b_3     0.000000   0.000000   0.418879
  
 *----------------------------------------------------------------------------*
 |   Site       Fractional Coordinate          Cartesian Coordinate (Ang)     |
 +----------------------------------------------------------------------------+
 | C    1   0.33333   0.66667   0.50000   |   -0.00000   1.42434   7.50000    |
 | C    2   0.66667   0.33333   0.50000   |    1.23352   0.71217   7.50000    |
 *----------------------------------------------------------------------------*
                                -----------
                                PROJECTIONS
                                -----------
  
 +----------------------------------------------------------------------------+
 |     Frac. Coord.   l mr  r        z-axis               x-axis          Z/a |
 +----------------------------------------------------------------------------+
 |  0.33  0.67  0.50  1  1  1  0.000  0.000  1.000  1.000  0.000  0.000   1.0 |
 |  0.67  0.33  0.50  1  1  1  0.000  0.000  1.000  1.000  0.000  0.000   1.0 |
 +----------------------------------------------------------------------------+
  
                                ------------
                                K-POINT GRID
                                ------------
  
             Grid size = 12 x 12 x  1      Total points =  144
  
 *----------------------------------------------------------------------------*
 | k-point      Fractional Coordinate        Cartesian Coordinate (Ang^-1)    |
 +----------------------------------------------------------------------------+
 |     1    0.00000   0.00000   0.00000   |    0.00000   0.00000   0.00000    |
 |     2    0.00000   0.08333   0.00000   |    0.00000   0.24507   0.00000    |
 |     3    0.00000   0.16667   0.00000   |    0.00000   0.49014   0.00000    |
 |     4    0.00000   0.25000   0.00000   |    0.00000   0.73521   0.00000    |
 |     5    0.00000   0.33333   0.00000   |    0.00000   0.98029   0.00000    |
 |     6    0.00000   0.41667   0.00000   |    0.00000   1.22536   0.00000    |
 |     7    0.00000   0.50000   0.00000   |    0.00000   1.47043   0.00000    |
 |     8    0.00000   0.58333   0.00000   |    0.00000   1.71550   0.00000    |
 |     9    0.00000   0.66667   0.00000   |    0.00000   1.96057   0.00000    |
 |    10    0.00000   0.75000   0.00000   |    0.00000   2.20564   0.00000    |
 |    11    0.00000   0.83333   0.00000   |    0.00000   2.45072   0.00000    |
 |    12    0.00000   0.91667   0.00000   |    0.00000   2.69579   0.00000    |
 |    13    0.08333   0.00000   0.00000   |    0.21224   0.12254   0.00000    |
 |    14    0.08333   0.08333   0.00000   |    0.21224   0.36761   0.00000    |
 |    15    0.08333   0.16667   0.00000   |    0.21224   0.61268   0.00000    |
 |    16    0.08333   0.25000   0.00000   |    0.21224   0.85775   0.00000    |
 |    17    0.08333   0.33333   0.00000   |    0.21224   1.10282   0.00000    |
 |    18    0.08333   0.41667   0.00000   |    0.21224   1.34789   0.00000    |
 |    19    0.08333   0.50000   0.00000   |    0.21224   1.59297   0.00000    |
 |    20    0.08333   0.58333   0.00000   |    0.21224   1.83804   0.00000    |
 |    21    0.08333   0.66667   0.00000   |    0.21224   2.08311   0.00000    |
 |    22    0.08333   0.75000   0.00000   |    0.21224   2.32818   0.00000    |
 |    23    0.08333   0.83333   0.00000   |    0.21224   2.57325   0.00000    |
 |    24    0.08333   0.91667   0.00000   |    0.21224   2.81832   0.00000    |
 |    25    0.16667   0.00000   0.00000   |    0.42448   0.24507   0.00000    |
 |    26    0.16667   0.08333   0.00000   |    0.42448   0.49014   0.00000    |
 |    27    0.16667   0.16667   0.00000   |    0.42448   0.73521   0.00000    |
 |    28    0.16667   0.25000   0.00000   |    0.42448   0.98029   0.00000    |
 |    29    0.16667   0.33333   0.00000   |    0.42448   1.22536   0.00000    |
 |    30    0.16667   0.41667   0.00000   |    0.42448   1.47043   0.00000    |
 |    31    0.16667   0.50000   0.00000   |    0.42448   1.71550   0.00000    |
 |    32    0.16667   0.58333   0.00000   |    0.42448   1.96057   0.00000    |
 |    33    0.16667   0.66667   0.00000   |    0.42448   2.20564   0.00000    |
 |    34    0.16667   0.75000   0.00000   |    0.42448   2.45072   0.00000    |
 |    35    0.16667   0.83333   0.00000   |    0.42448   2.69579   0.00000    |
 |    36    0.16667   0.91667   0.00000   |    0.42448   2.94086   0.00000    |
 |    37    0.25000  -0.00000   0.00000   |    0.63671   0.36761   0.00000    |
 |    38    0.25000   0.08333   0.00000   |    0.63671   0.61268   0.00000    |
 |    39    0.25000   0.16667   0.00000   |    0.63671   0.85775   0.00000    |
 |    40    0.25000   0.25000   0.00000   |    0.63671   1.10282   0.00000    |
 |    41    0.25000   0.33333   0.00000   |    0.63671   1.34789   0.00000    |
 |    42    0.25000   0.41667   0.00000   |    0.63671   1.59297   0.00000    |
 |    43    0.25000   0.50000   0.00000   |    0.63671   1.83804   0.00000    |
 |    44    0.25000   0.58333   0.00000   |    0.63671   2.08311   0.00000    |
 |    45    0.25000   0.66667   0.00000   |    0.63671   2.32818   0.00000    |
 |    46    0.25000   0.75000   0.00000   |    0.63671   2.57325   0.00000    |
 |    47    0.25000   0.83333   0.00000   |    0.63671   2.81832   0.00000    |
 |    48    0.25000   0.91667   0.00000   |    0.63671   3.06339   0.00000    |
 |    49    0.33333  -0.00000   0.00000   |    0.84895   0.49014   0.00000    |
 |    50    0.33333   0.08333   0.00000   |    0.84895   0.73521   0.00000    |
 |    51    0.33333   0.16667   0.00000   |    0.84895   0.98029   0.00000    |
 |    52    0.33333   0.25000   0.00000   |    0.84895   1.22536   0.00000    |
 |    53    0.33333   0.33333   0.00000   |    0.84895   1.47043   0.00000    |
 |    54    0.33333   0.41667   0.00000   |    0.84895   1.71550   0.00000    |
 |    55    0.33333   0.50000   0.00000   |    0.84895   1.96057   0.00000    |
 |    56    0.33333   0.58333   0.00000   |    0.84895   2.20564   0.00000    |
 |    57    0.33333   0.66667   0.00000   |    0.84895   2.45072   0.00000    |
 |    58    0.33333   0.75000   0.00000   |    0.84895   2.69579   0.00000    |
 |    59    0.33333   0.83333   0.00000   |    0.84895   2.94086   0.00000    |
 |    60    0.33333   0.91667   0.00000   |    0.84895   3.18593   0.00000    |
 |    61    0.41667   0.00000   0.00000   |    1.06119   0.61268   0.00000    |
 |    62    0.41667   0.08333   0.00000   |    1.06119   0.85775   0.00000    |
 |    63    0.41667   0.16667   0.00000   |    1.06119   1.10282   0.00000    |
 |    64    0.41667   0.25000   0.00000   |    1.06119   1.34789   0.00000    |
 |    65    0.41667   0.33333   0.00000   |    1.06119   1.59297   0.00000    |
 |    66    0.41667   0.41667   0.00000   |    1.06119   1.83804   0.00000    |
 |    67    0.41667   0.50000   0.00000   |    1.06119   2.08311   0.00000    |
 |    68    0.41667   0.58333   0.00000   |    1.06119   2.32818   0.00000    |
 |    69    0.41667   0.66667   0.00000   |    1.06119   2.57325   0.00000    |
 |    70    0.41667   0.75000   0.00000   |    1.06119   2.81832   0.00000    |
 |    71    0.41667   0.83333   0.00000   |    1.06119   3.06339   0.00000    |
 |    72    0.41667   0.91667   0.00000   |    1.06119   3.30847   0.00000    |
 |    73    0.50000  -0.00000   0.00000   |    1.27343   0.73521   0.00000    |
 |    74    0.50000   0.08333   0.00000   |    1.27343   0.98029   0.00000    |
 |    75    0.50000   0.16667   0.00000   |    1.27343   1.22536   0.00000    |
 |    76    0.50000   0.25000   0.00000   |    1.27343   1.47043   0.00000    |
 |    77    0.50000   0.33333   0.00000   |    1.27343   1.71550   0.00000    |
 |    78    0.50000   0.41667   0.00000   |    1.27343   1.96057   0.00000    |
 |    79    0.50000   0.50000   0.00000   |    1.27343   2.20564   0.00000    |
 |    80    0.50000   0.58333   0.00000   |    1.27343   2.45072   0.00000    |
 |    81    0.50000   0.66667   0.00000   |    1.27343   2.69579   0.00000    |
 |    82    0.50000   0.75000   0.00000   |    1.27343   2.94086   0.00000    |
 |    83    0.50000   0.83333   0.00000   |    1.27343   3.18593   0.00000    |
 |    84    0.50000   0.91667   0.00000   |    1.27343   3.43100   0.00000    |
 |    85    0.58333  -0.00000   0.00000   |    1.48567   0.85775   0.00000    |
 |    86    0.58333   0.08333   0.00000   |    1.48567   1.10282   0.00000    |
 |    87    0.58333   0.16667   0.00000   |    1.48567   1.34789   0.00000    |
 |    88    0.58333   0.25000   0.00000   |    1.48567   1.59297   0.00000    |
 |    89    0.58333   0.33333   0.00000   |    1.48567   1.83804   0.00000    |
 |    90    0.58333   0.41667   0.00000   |    1.48567   2.08311   0.00000    |
 |    91    0.58333   0.50000   0.00000   |    1.48567   2.32818   0.00000    |
 |    92    0.58333   0.58333   0.00000   |    1.48567   2.57325   0.00000    |
 |    93    0.58333   0.66667   0.00000   |    1.48567   2.81832   0.00000    |
 |    94    0.58333   0.75000   0.00000   |    1.48567   3.06339   0.00000    |
 |    95    0.58333   0.83333   0.00000   |    1.48567   3.30847   0.00000    |
 |    96    0.58333   0.91667   0.00000   |    1.48567   3.55354   0.00000    |
 |    97    0.66667  -0.00000   0.00000   |    1.69791   0.98029   0.00000    |
 |    98    0.66667   0.08333   0.00000   |    1.69791   1.22536   0.00000    |
 |    99    0.66667   0.16667   0.00000   |    1.69791   1.47043   0.00000    |
 |   100    0.66667   0.25000   0.00000   |    1.69791   1.71550   0.00000    |
 |   101    0.66667   0.33333   0.00000   |    1.69791   1.96057   0.00000    |
 |   102    0.66667   0.41667   0.00000   |    1.69791   2.20564   0.00000    |
 |   103    0.66667   0.50000   0.00000   |    1.69791   2.45072   0.00000    |
 |   104    0.66667   0.58333   0.00000   |    1.69791   2.69579   0.00000    |
 |   105    0.66667   0.66667   0.00000   |    1.69791   2.94086   0.00000    |
 |   106    0.66667   0.75000   0.00000   |    1.69791   3.18593   0.00000    |
 |   107    0.66667   0.83333   0.00000   |    1.69791   3.43100   0.00000    |
 |   108    0.66667   0.91667   0.00000   |    1.69791   3.67607   0.00000    |
 |   109    0.75000  -0.00000   0.00000   |    1.91014   1.10282   0.00000    |
 |   110    0.75000   0.08333   0.00000   |    1.91014   1.34789   0.00000    |
 |   111    0.75000   0.16667   0.00000   |    1.91014   1.59297   0.00000    |
 |   112    0.75000   0.25000   0.00000   |    1.91014   1.83804   0.00000    |
 |   113    0.75000   0.33333   0.00000   |    1.91014   2.08311   0.00000    |
 |   114    0.75000   0.41667   0.00000   |    1.91014   2.32818   0.00000    |
 |   115    0.75000   0.50000   0.00000   |    1.91014   2.57325   0.00000    |
 |   116    0.75000   0.58333   0.00000   |    1.91014   2.81832   0.00000    |
 |   117    0.75000   0.66667   0.00000   |    1.91014   3.06339   0.00000    |
 |   118    0.75000   0.75000   0.00000   |    1.91014   3.30847   0.00000    |
 |   119    0.75000   0.83333   0.00000   |    1.91014   3.55354   0.00000    |
 |   120    0.75000   0.91667   0.00000   |    1.91014   3.79861   0.00000    |
 |   121    0.83333   0.00000   0.00000   |    2.12238   1.22536   0.00000    |
 |   122    0.83333   0.08333   0.00000   |    2.12238   1.47043   0.00000    |
 |   123    0.83333   0.16667   0.00000   |    2.12238   1.71550   0.00000    |
 |   124    0.83333   0.25000   0.00000   |    2.12238   1.96057   0.00000    |
 |   125    0.83333   0.33333   0.00000   |    2.12238   2.20564   0.00000    |
 |   126    0.83333   0.41667   0.00000   |    2.12238   2.45072   0.00000    |
 |   127    0.83333   0.50000   0.00000   |    2.12238   2.69579   0.00000    |
 |   128    0.83333   0.58333   0.00000   |    2.12238   2.94086   0.00000    |
 |   129    0.83333   0.66667   0.00000   |    2.12238   3.18593   0.00000    |
 |   130    0.83333   0.75000   0.00000   |    2.12238   3.43100   0.00000    |
 |   131    0.83333   0.83333   0.00000   |    2.12238   3.67607   0.00000    |
 |   132    0.83333   0.91667   0.00000   |    2.12238   3.92115   0.00000    |
 |   133    0.91667  -0.00000   0.00000   |    2.33462   1.34789   0.00000    |
 |   134    0.91667   0.08333   0.00000   |    2.33462   1.59297   0.00000    |
 |   135    0.91667   0.16667   0.00000   |    2.33462   1.83804   0.00000    |
 |   136    0.91667   0.25000   0.00000   |    2.33462   2.08311   0.00000    |
 |   137    0.91667   0.33333   0.00000   |    2.33462   2.32818   0.00000    |
 |   138    0.91667   0.41667   0.00000   |    2.33462   2.57325   0.00000    |
 |   139    0.91667   0.50000   0.00000   |    2.33462   2.81832   0.00000    |
 |   140    0.91667   0.58333   0.00000   |    2.33462   3.06339   0.00000    |
 |   141    0.91667   0.66667   0.00000   |    2.33462   3.30847   0.00000    |
 |   142    0.91667   0.75000   0.00000   |    2.33462   3.55354   0.00000    |
 |   143    0.91667   0.83333   0.00000   |    2.33462   3.79861   0.00000    |
 |   144    0.91667   0.91667   0.00000   |    2.33462   4.04368   0.00000    |
 *----------------------------------------------------------------------------*
  
  
 *---------------------------------- MAIN ------------------------------------*
 |  Number of Wannier Functions               :                 2             |
 |  Number of Objective Wannier Functions     :                 2             |
 |  Number of input Bloch states              :                56             |
 |  Output verbosity (1=low, 5=high)          :                 2             |
 |  Timing Level (1=low, 5=high)              :                 1             |
 |  Optimisation (0=memory, 3=speed)          :                 3             |
 |  Length Unit                               :               Ang             |
 |  Post-processing setup (write *.nnkp)      :                 T             |
 |  Using Gamma-only branch of algorithms     :                 F             |
 *----------------------------------------------------------------------------*
 *------------------------------- WANNIERISE ---------------------------------*
 |  Total number of iterations                :             30000             |
 |  Number of CG steps before reset           :                 5             |
 |  Trial step length for line search         :             2.000             |
 |  Convergence tolerence                     :         0.100E-09             |
 |  Convergence window                        :                10             |
 |  Iterations between writing output         :                 1             |
 |  Iterations between backing up to disk     :               100             |
 |  Write r^2_nm to file                      :                 F             |
 |  Write xyz WF centres to file              :                 F             |
 |  Write on-site energies <0n|H|0n> to file  :                 F             |
 |  Use guiding centre to control phases      :                 T             |
 |  Use phases for initial projections        :                 F             |
 |  Iterations before starting guiding centres:                 0             |
 |  Iterations between using guiding centres  :                 1             |
 *----------------------------------------------------------------------------*
 *------------------------------- DISENTANGLE --------------------------------*
 |  Using band disentanglement                :                 T             |
 |  Total number of iterations                :             30000             |
 |  Mixing ratio                              :             0.500             |
 |  Convergence tolerence                     :         1.000E-10             |
 |  Convergence window                        :                 5             |
 *----------------------------------------------------------------------------*
 *-------------------------------- PLOTTING ----------------------------------*
 |  Plotting Hamiltonian in WF basis          :                 T             |
 *----------------------------------------------------------------------------*
 Time to read parameters        0.002 (sec)

 *---------------------------------- K-MESH ----------------------------------*
 +----------------------------------------------------------------------------+
 |                    Distance to Nearest-Neighbour Shells                    |
 |                    ------------------------------------                    |
 |          Shell             Distance (Ang^-1)          Multiplicity         |
 |          -----             -----------------          ------------         |
 |             1                   0.245072                      6            |
 |             2                   0.418879                      2            |
 |             3                   0.424476                      6            |
 |             4                   0.485304                     12            |
 |             5                   0.490143                      6            |
 |             6                   0.596355                     12            |
 |             7                   0.644748                     12            |
 |             8                   0.648398                     12            |
 |             9                   0.735215                      6            |
 |            10                   0.771933                     24            |
 |            11                   0.837758                      2            |
 |            12                   0.846168                     12            |
 |            13                   0.848953                      6            |
 |            14                   0.872868                     12            |
 |            15                   0.883618                     12            |
 |            16                   0.939159                     12            |
 |            17                   0.946668                     12            |
 |            18                   0.970607                     12            |
 |            19                   0.977876                     24            |
 |            20                   0.980286                      6            |
 |            21                   1.059367                     24            |
 |            22                   1.066030                     12            |
 |            23                   1.068242                     12            |
 |            24                   1.114621                     12            |
 |            25                   1.123059                     12            |
 |            26                   1.147432                     24            |
 |            27                   1.192711                     12            |
 |            28                   1.198633                     24            |
 |            29                   1.217629                     24            |
 |            30                   1.225358                      6            |
 |            31                   1.256637                      2            |
 |            32                   1.273429                      6            |
 |            33                   1.280311                     12            |
 |            34                   1.289496                     12            |
 |            35                   1.294975                     12            |
 |            36                   1.296797                     12            |
 +----------------------------------------------------------------------------+
 | The b-vectors are chosen automatically                                     |
 | Shell:  1 w_b    5.5499993      (Ang^2)                                    |
 | Shell:  1 w_b    5.5499993      (Ang^2)                                    |
 | Shell:  2 w_b    2.8496583      (Ang^2)                                    |
 | The following shells are used:   1,  2                                     |
 +----------------------------------------------------------------------------+
 |                        Shell   # Nearest-Neighbours                        |
 |                        -----   --------------------                        |
 |                          1               6                                 |
 |                          2               2                                 |
 +----------------------------------------------------------------------------+
 | Completeness relation is fully satisfied [Eq. (B1), PRB 56, 12847 (1997)]  |
 +----------------------------------------------------------------------------+
 |                  b_k Vectors (Ang^-1) and Weights (Ang^2)                  |
 |                  ----------------------------------------                  |
 |            No.         b_k(x)      b_k(y)      b_k(z)        w_b           |
 |            ---        --------------------------------     --------        |
 |             1         0.000000    0.245072    0.000000     5.549999        |
 |             2         0.212238    0.122536    0.000000     5.549999        |
 |             3         0.000000   -0.245072    0.000000     5.549999        |
 |             4         0.212238   -0.122536    0.000000     5.549999        |
 |             5        -0.212238   -0.122536    0.000000     5.549999        |
 |             6        -0.212238    0.122536    0.000000     5.549999        |
 |             7         0.000000    0.000000    0.418879     2.849658        |
 |             8         0.000000    0.000000   -0.418879     2.849658        |
 +----------------------------------------------------------------------------+
 |                           b_k Directions (Ang^-1)                          |
 |                           -----------------------                          |
 |            No.           x           y           z                         |
 |            ---        --------------------------------                     |
 |             1         0.000000    0.245072    0.000000                     |
 |             2         0.212238    0.122536    0.000000                     |
 |             3         0.212238   -0.122536    0.000000                     |
 |             4         0.000000    0.000000    0.418879                     |
 +----------------------------------------------------------------------------+
  
 Time to write kmesh            0.077 (sec)

 graphene.nnkp written.
 Time to write kmesh            0.077 (sec)

 Finished setting up k-point neighbours.

 Exiting wannier_setup in wannier90 18:51:27 

 Resuming Wannier90 at 18:51:58 

 
                                    ------
                                    SYSTEM
                                    ------
 
                              Lattice Vectors (Ang)
                    a_1     2.467034   0.000000   0.000000
                    a_2    -1.233517   2.136514   0.000000
                    a_3     0.000000   0.000000  15.000000
 
                   Unit Cell Volume:      79.06277  (Ang^3)
 
                        Reciprocal-Space Vectors (Ang^-1)
                    b_1     2.546858   1.470429   0.000000
                    b_2     0.000000   2.940859   0.000000
                    b_3     0.000000   0.000000   0.418879
  
 *----------------------------------------------------------------------------*
 |   Site       Fractional Coordinate          Cartesian Coordinate (Ang)     |
 +----------------------------------------------------------------------------+
 | C    1   0.33333   0.66667   0.50000   |   -0.00000   1.42434   7.50000    |
 | C    2   0.66667   0.33333   0.50000   |    1.23352   0.71217   7.50000    |
 *----------------------------------------------------------------------------*
                                -----------
                                PROJECTIONS
                                -----------
  
 +----------------------------------------------------------------------------+
 |     Frac. Coord.   l mr  r        z-axis               x-axis          Z/a |
 +----------------------------------------------------------------------------+
 |  0.33  0.67  0.50  1  1  1  0.000  0.000  1.000  1.000  0.000  0.000   1.0 |
 |  0.67  0.33  0.50  1  1  1  0.000  0.000  1.000  1.000  0.000  0.000   1.0 |
 +----------------------------------------------------------------------------+
  
                                ------------
                                K-POINT GRID
                                ------------
  
             Grid size = 12 x 12 x  1      Total points =  144
  
 *----------------------------------------------------------------------------*
 | k-point      Fractional Coordinate        Cartesian Coordinate (Ang^-1)    |
 +----------------------------------------------------------------------------+
 |     1    0.00000   0.00000   0.00000   |    0.00000   0.00000   0.00000    |
 |     2    0.00000   0.08333   0.00000   |    0.00000   0.24507   0.00000    |
 |     3    0.00000   0.16667   0.00000   |    0.00000   0.49014   0.00000    |
 |     4    0.00000   0.25000   0.00000   |    0.00000   0.73521   0.00000    |
 |     5    0.00000   0.33333   0.00000   |    0.00000   0.98029   0.00000    |
 |     6    0.00000   0.41667   0.00000   |    0.00000   1.22536   0.00000    |
 |     7    0.00000   0.50000   0.00000   |    0.00000   1.47043   0.00000    |
 |     8    0.00000   0.58333   0.00000   |    0.00000   1.71550   0.00000    |
 |     9    0.00000   0.66667   0.00000   |    0.00000   1.96057   0.00000    |
 |    10    0.00000   0.75000   0.00000   |    0.00000   2.20564   0.00000    |
 |    11    0.00000   0.83333   0.00000   |    0.00000   2.45072   0.00000    |
 |    12    0.00000   0.91667   0.00000   |    0.00000   2.69579   0.00000    |
 |    13    0.08333   0.00000   0.00000   |    0.21224   0.12254   0.00000    |
 |    14    0.08333   0.08333   0.00000   |    0.21224   0.36761   0.00000    |
 |    15    0.08333   0.16667   0.00000   |    0.21224   0.61268   0.00000    |
 |    16    0.08333   0.25000   0.00000   |    0.21224   0.85775   0.00000    |
 |    17    0.08333   0.33333   0.00000   |    0.21224   1.10282   0.00000    |
 |    18    0.08333   0.41667   0.00000   |    0.21224   1.34789   0.00000    |
 |    19    0.08333   0.50000   0.00000   |    0.21224   1.59297   0.00000    |
 |    20    0.08333   0.58333   0.00000   |    0.21224   1.83804   0.00000    |
 |    21    0.08333   0.66667   0.00000   |    0.21224   2.08311   0.00000    |
 |    22    0.08333   0.75000   0.00000   |    0.21224   2.32818   0.00000    |
 |    23    0.08333   0.83333   0.00000   |    0.21224   2.57325   0.00000    |
 |    24    0.08333   0.91667   0.00000   |    0.21224   2.81832   0.00000    |
 |    25    0.16667   0.00000   0.00000   |    0.42448   0.24507   0.00000    |
 |    26    0.16667   0.08333   0.00000   |    0.42448   0.49014   0.00000    |
 |    27    0.16667   0.16667   0.00000   |    0.42448   0.73521   0.00000    |
 |    28    0.16667   0.25000   0.00000   |    0.42448   0.98029   0.00000    |
 |    29    0.16667   0.33333   0.00000   |    0.42448   1.22536   0.00000    |
 |    30    0.16667   0.41667   0.00000   |    0.42448   1.47043   0.00000    |
 |    31    0.16667   0.50000   0.00000   |    0.42448   1.71550   0.00000    |
 |    32    0.16667   0.58333   0.00000   |    0.42448   1.96057   0.00000    |
 |    33    0.16667   0.66667   0.00000   |    0.42448   2.20564   0.00000    |
 |    34    0.16667   0.75000   0.00000   |    0.42448   2.45072   0.00000    |
 |    35    0.16667   0.83333   0.00000   |    0.42448   2.69579   0.00000    |
 |    36    0.16667   0.91667   0.00000   |    0.42448   2.94086   0.00000    |
 |    37    0.25000  -0.00000   0.00000   |    0.63671   0.36761   0.00000    |
 |    38    0.25000   0.08333   0.00000   |    0.63671   0.61268   0.00000    |
 |    39    0.25000   0.16667   0.00000   |    0.63671   0.85775   0.00000    |
 |    40    0.25000   0.25000   0.00000   |    0.63671   1.10282   0.00000    |
 |    41    0.25000   0.33333   0.00000   |    0.63671   1.34789   0.00000    |
 |    42    0.25000   0.41667   0.00000   |    0.63671   1.59297   0.00000    |
 |    43    0.25000   0.50000   0.00000   |    0.63671   1.83804   0.00000    |
 |    44    0.25000   0.58333   0.00000   |    0.63671   2.08311   0.00000    |
 |    45    0.25000   0.66667   0.00000   |    0.63671   2.32818   0.00000    |
 |    46    0.25000   0.75000   0.00000   |    0.63671   2.57325   0.00000    |
 |    47    0.25000   0.83333   0.00000   |    0.63671   2.81832   0.00000    |
 |    48    0.25000   0.91667   0.00000   |    0.63671   3.06339   0.00000    |
 |    49    0.33333  -0.00000   0.00000   |    0.84895   0.49014   0.00000    |
 |    50    0.33333   0.08333   0.00000   |    0.84895   0.73521   0.00000    |
 |    51    0.33333   0.16667   0.00000   |    0.84895   0.98029   0.00000    |
 |    52    0.33333   0.25000   0.00000   |    0.84895   1.22536   0.00000    |
 |    53    0.33333   0.33333   0.00000   |    0.84895   1.47043   0.00000    |
 |    54    0.33333   0.41667   0.00000   |    0.84895   1.71550   0.00000    |
 |    55    0.33333   0.50000   0.00000   |    0.84895   1.96057   0.00000    |
 |    56    0.33333   0.58333   0.00000   |    0.84895   2.20564   0.00000    |
 |    57    0.33333   0.66667   0.00000   |    0.84895   2.45072   0.00000    |
 |    58    0.33333   0.75000   0.00000   |    0.84895   2.69579   0.00000    |
 |    59    0.33333   0.83333   0.00000   |    0.84895   2.94086   0.00000    |
 |    60    0.33333   0.91667   0.00000   |    0.84895   3.18593   0.00000    |
 |    61    0.41667   0.00000   0.00000   |    1.06119   0.61268   0.00000    |
 |    62    0.41667   0.08333   0.00000   |    1.06119   0.85775   0.00000    |
 |    63    0.41667   0.16667   0.00000   |    1.06119   1.10282   0.00000    |
 |    64    0.41667   0.25000   0.00000   |    1.06119   1.34789   0.00000    |
 |    65    0.41667   0.33333   0.00000   |    1.06119   1.59297   0.00000    |
 |    66    0.41667   0.41667   0.00000   |    1.06119   1.83804   0.00000    |
 |    67    0.41667   0.50000   0.00000   |    1.06119   2.08311   0.00000    |
 |    68    0.41667   0.58333   0.00000   |    1.06119   2.32818   0.00000    |
 |    69    0.41667   0.66667   0.00000   |    1.06119   2.57325   0.00000    |
 |    70    0.41667   0.75000   0.00000   |    1.06119   2.81832   0.00000    |
 |    71    0.41667   0.83333   0.00000   |    1.06119   3.06339   0.00000    |
 |    72    0.41667   0.91667   0.00000   |    1.06119   3.30847   0.00000    |
 |    73    0.50000  -0.00000   0.00000   |    1.27343   0.73521   0.00000    |
 |    74    0.50000   0.08333   0.00000   |    1.27343   0.98029   0.00000    |
 |    75    0.50000   0.16667   0.00000   |    1.27343   1.22536   0.00000    |
 |    76    0.50000   0.25000   0.00000   |    1.27343   1.47043   0.00000    |
 |    77    0.50000   0.33333   0.00000   |    1.27343   1.71550   0.00000    |
 |    78    0.50000   0.41667   0.00000   |    1.27343   1.96057   0.00000    |
 |    79    0.50000   0.50000   0.00000   |    1.27343   2.20564   0.00000    |
 |    80    0.50000   0.58333   0.00000   |    1.27343   2.45072   0.00000    |
 |    81    0.50000   0.66667   0.00000   |    1.27343   2.69579   0.00000    |
 |    82    0.50000   0.75000   0.00000   |    1.27343   2.94086   0.00000    |
 |    83    0.50000   0.83333   0.00000   |    1.27343   3.18593   0.00000    |
 |    84    0.50000   0.91667   0.00000   |    1.27343   3.43100   0.00000    |
 |    85    0.58333  -0.00000   0.00000   |    1.48567   0.85775   0.00000    |
 |    86    0.58333   0.08333   0.00000   |    1.48567   1.10282   0.00000    |
 |    87    0.58333   0.16667   0.00000   |    1.48567   1.34789   0.00000    |
 |    88    0.58333   0.25000   0.00000   |    1.48567   1.59297   0.00000    |
 |    89    0.58333   0.33333   0.00000   |    1.48567   1.83804   0.00000    |
 |    90    0.58333   0.41667   0.00000   |    1.48567   2.08311   0.00000    |
 |    91    0.58333   0.50000   0.00000   |    1.48567   2.32818   0.00000    |
 |    92    0.58333   0.58333   0.00000   |    1.48567   2.57325   0.00000    |
 |    93    0.58333   0.66667   0.00000   |    1.48567   2.81832   0.00000    |
 |    94    0.58333   0.75000   0.00000   |    1.48567   3.06339   0.00000    |
 |    95    0.58333   0.83333   0.00000   |    1.48567   3.30847   0.00000    |
 |    96    0.58333   0.91667   0.00000   |    1.48567   3.55354   0.00000    |
 |    97    0.66667  -0.00000   0.00000   |    1.69791   0.98029   0.00000    |
 |    98    0.66667   0.08333   0.00000   |    1.69791   1.22536   0.00000    |
 |    99    0.66667   0.16667   0.00000   |    1.69791   1.47043   0.00000    |
 |   100    0.66667   0.25000   0.00000   |    1.69791   1.71550   0.00000    |
 |   101    0.66667   0.33333   0.00000   |    1.69791   1.96057   0.00000    |
 |   102    0.66667   0.41667   0.00000   |    1.69791   2.20564   0.00000    |
 |   103    0.66667   0.50000   0.00000   |    1.69791   2.45072   0.00000    |
 |   104    0.66667   0.58333   0.00000   |    1.69791   2.69579   0.00000    |
 |   105    0.66667   0.66667   0.00000   |    1.69791   2.94086   0.00000    |
 |   106    0.66667   0.75000   0.00000   |    1.69791   3.18593   0.00000    |
 |   107    0.66667   0.83333   0.00000   |    1.69791   3.43100   0.00000    |
 |   108    0.66667   0.91667   0.00000   |    1.69791   3.67607   0.00000    |
 |   109    0.75000  -0.00000   0.00000   |    1.91014   1.10282   0.00000    |
 |   110    0.75000   0.08333   0.00000   |    1.91014   1.34789   0.00000    |
 |   111    0.75000   0.16667   0.00000   |    1.91014   1.59297   0.00000    |
 |   112    0.75000   0.25000   0.00000   |    1.91014   1.83804   0.00000    |
 |   113    0.75000   0.33333   0.00000   |    1.91014   2.08311   0.00000    |
 |   114    0.75000   0.41667   0.00000   |    1.91014   2.32818   0.00000    |
 |   115    0.75000   0.50000   0.00000   |    1.91014   2.57325   0.00000    |
 |   116    0.75000   0.58333   0.00000   |    1.91014   2.81832   0.00000    |
 |   117    0.75000   0.66667   0.00000   |    1.91014   3.06339   0.00000    |
 |   118    0.75000   0.75000   0.00000   |    1.91014   3.30847   0.00000    |
 |   119    0.75000   0.83333   0.00000   |    1.91014   3.55354   0.00000    |
 |   120    0.75000   0.91667   0.00000   |    1.91014   3.79861   0.00000    |
 |   121    0.83333   0.00000   0.00000   |    2.12238   1.22536   0.00000    |
 |   122    0.83333   0.08333   0.00000   |    2.12238   1.47043   0.00000    |
 |   123    0.83333   0.16667   0.00000   |    2.12238   1.71550   0.00000    |
 |   124    0.83333   0.25000   0.00000   |    2.12238   1.96057   0.00000    |
 |   125    0.83333   0.33333   0.00000   |    2.12238   2.20564   0.00000    |
 |   126    0.83333   0.41667   0.00000   |    2.12238   2.45072   0.00000    |
 |   127    0.83333   0.50000   0.00000   |    2.12238   2.69579   0.00000    |
 |   128    0.83333   0.58333   0.00000   |    2.12238   2.94086   0.00000    |
 |   129    0.83333   0.66667   0.00000   |    2.12238   3.18593   0.00000    |
 |   130    0.83333   0.75000   0.00000   |    2.12238   3.43100   0.00000    |
 |   131    0.83333   0.83333   0.00000   |    2.12238   3.67607   0.00000    |
 |   132    0.83333   0.91667   0.00000   |    2.12238   3.92115   0.00000    |
 |   133    0.91667  -0.00000   0.00000   |    2.33462   1.34789   0.00000    |
 |   134    0.91667   0.08333   0.00000   |    2.33462   1.59297   0.00000    |
 |   135    0.91667   0.16667   0.00000   |    2.33462   1.83804   0.00000    |
 |   136    0.91667   0.25000   0.00000   |    2.33462   2.08311   0.00000    |
 |   137    0.91667   0.33333   0.00000   |    2.33462   2.32818   0.00000    |
 |   138    0.91667   0.41667   0.00000   |    2.33462   2.57325   0.00000    |
 |   139    0.91667   0.50000   0.00000   |    2.33462   2.81832   0.00000    |
 |   140    0.91667   0.58333   0.00000   |    2.33462   3.06339   0.00000    |
 |   141    0.91667   0.66667   0.00000   |    2.33462   3.30847   0.00000    |
 |   142    0.91667   0.75000   0.00000   |    2.33462   3.55354   0.00000    |
 |   143    0.91667   0.83333   0.00000   |    2.33462   3.79861   0.00000    |
 |   144    0.91667   0.91667   0.00000   |    2.33462   4.04368   0.00000    |
 *----------------------------------------------------------------------------*
  
  
 *---------------------------------- MAIN ------------------------------------*
 |  Number of Wannier Functions               :                 2             |
 |  Number of Objective Wannier Functions     :                 2             |
 |  Number of input Bloch states              :                56             |
 |  Output verbosity (1=low, 5=high)          :                 2             |
 |  Timing Level (1=low, 5=high)              :                 1             |
 |  Optimisation (0=memory, 3=speed)          :                 3             |
 |  Length Unit                               :               Ang             |
 |  Post-processing setup (write *.nnkp)      :                 T             |
 |  Using Gamma-only branch of algorithms     :                 F             |
 *----------------------------------------------------------------------------*
 *------------------------------- WANNIERISE ---------------------------------*
 |  Total number of iterations                :             30000             |
 |  Number of CG steps before reset           :                 5             |
 |  Trial step length for line search         :             2.000             |
 |  Convergence tolerence                     :         0.100E-09             |
 |  Convergence window                        :                10             |
 |  Iterations between writing output         :                 1             |
 |  Iterations between backing up to disk     :               100             |
 |  Write r^2_nm to file                      :                 F             |
 |  Write xyz WF centres to file              :                 F             |
 |  Write on-site energies <0n|H|0n> to file  :                 F             |
 |  Use guiding centre to control phases      :                 T             |
 |  Use phases for initial projections        :                 F             |
 |  Iterations before starting guiding centres:                 0             |
 |  Iterations between using guiding centres  :                 1             |
 *----------------------------------------------------------------------------*
 *------------------------------- DISENTANGLE --------------------------------*
 |  Using band disentanglement                :                 T             |
 |  Total number of iterations                :             30000             |
 |  Mixing ratio                              :             0.500             |
 |  Convergence tolerence                     :         1.000E-10             |
 |  Convergence window                        :                 5             |
 *----------------------------------------------------------------------------*
 *-------------------------------- PLOTTING ----------------------------------*
 |  Plotting Hamiltonian in WF basis          :                 T             |
 *----------------------------------------------------------------------------*
 Time to read parameters        0.004 (sec)

 *---------------------------------- K-MESH ----------------------------------*
 +----------------------------------------------------------------------------+
 |                    Distance to Nearest-Neighbour Shells                    |
 |                    ------------------------------------                    |
 |          Shell             Distance (Ang^-1)          Multiplicity         |
 |          -----             -----------------          ------------         |
 |             1                   0.245072                      6            |
 |             2                   0.418879                      2            |
 |             3                   0.424476                      6            |
 |             4                   0.485304                     12            |
 |             5                   0.490143                      6            |
 |             6                   0.596355                     12            |
 |             7                   0.644748                     12            |
 |             8                   0.648398                     12            |
 |             9                   0.735215                      6            |
 |            10                   0.771933                     24            |
 |            11                   0.837758                      2            |
 |            12                   0.846168                     12            |
 |            13                   0.848953                      6            |
 |            14                   0.872868                     12            |
 |            15                   0.883618                     12            |
 |            16                   0.939159                     12            |
 |            17                   0.946668                     12            |
 |            18                   0.970607                     12            |
 |            19                   0.977876                     24            |
 |            20                   0.980286                      6            |
 |            21                   1.059367                     24            |
 |            22                   1.066030                     12            |
 |            23                   1.068242                     12            |
 |            24                   1.114621                     12            |
 |            25                   1.123059                     12            |
 |            26                   1.147432                     24            |
 |            27                   1.192711                     12            |
 |            28                   1.198633                     24            |
 |            29                   1.217629                     24            |
 |            30                   1.225358                      6            |
 |            31                   1.256637                      2            |
 |            32                   1.273429                      6            |
 |            33                   1.280311                     12            |
 |            34                   1.289496                     12            |
 |            35                   1.294975                     12            |
 |            36                   1.296797                     12            |
 +----------------------------------------------------------------------------+
 | The b-vectors are chosen automatically                                     |
 | Shell:  1 w_b    5.5499993      (Ang^2)                                    |
 | Shell:  1 w_b    5.5499993      (Ang^2)                                    |
 | Shell:  2 w_b    2.8496583      (Ang^2)                                    |
 | The following shells are used:   1,  2                                     |
 +----------------------------------------------------------------------------+
 |                        Shell   # Nearest-Neighbours                        |
 |                        -----   --------------------                        |
 |                          1               6                                 |
 |                          2               2                                 |
 +----------------------------------------------------------------------------+
 | Completeness relation is fully satisfied [Eq. (B1), PRB 56, 12847 (1997)]  |
 +----------------------------------------------------------------------------+
 |                  b_k Vectors (Ang^-1) and Weights (Ang^2)                  |
 |                  ----------------------------------------                  |
 |            No.         b_k(x)      b_k(y)      b_k(z)        w_b           |
 |            ---        --------------------------------     --------        |
 |             1         0.000000    0.245072    0.000000     5.549999        |
 |             2         0.212238    0.122536    0.000000     5.549999        |
 |             3         0.000000   -0.245072    0.000000     5.549999        |
 |             4         0.212238   -0.122536    0.000000     5.549999        |
 |             5        -0.212238   -0.122536    0.000000     5.549999        |
 |             6        -0.212238    0.122536    0.000000     5.549999        |
 |             7         0.000000    0.000000    0.418879     2.849658        |
 |             8         0.000000    0.000000   -0.418879     2.849658        |
 +----------------------------------------------------------------------------+
 |                           b_k Directions (Ang^-1)                          |
 |                           -----------------------                          |
 |            No.           x           y           z                         |
 |            ---        --------------------------------                     |
 |             1         0.000000    0.245072    0.000000                     |
 |             2         0.212238    0.122536    0.000000                     |
 |             3         0.212238   -0.122536    0.000000                     |
 |             4         0.000000    0.000000    0.418879                     |
 +----------------------------------------------------------------------------+
  
 Time to get kmesh              0.142 (sec)

 *------------------------------- DISENTANGLE --------------------------------*
 +----------------------------------------------------------------------------+
 |                              Energy  Windows                               |
 |                              ---------------                               |
 |                   Outer:  -21.24222  to   10.00000  (eV)                   |
 |                   Inner:   -4.50000  to    1.35000  (eV)                   |
 +----------------------------------------------------------------------------+
 |                        K-points with Frozen States                         |
 |                        ---------------------------                         |
 |     6     7     8    18    19    29    30    31    40    41    42    43    |
 |    51    52    53    54    55    61    62    63    64    65    66    67    |
 |    68    73    74    75    76    77    78    79    80    81    82    83    |
 |    84    85    90    91    92    93    94    95    96   103   104   105    |
 |   106   107   115   116   117   118   127   128   129   139   140          |
 +----------------------------------------------------------------------------+
   Number of target bands to extract:    2
 +----------------------------------------------------------------------------+
 |                                  Windows                                   |
 |                                  -------                                   |
 |               K-point      Ndimwin     Ndimfroz    Nfirstwin               |
 |               ----------------------------------------------               |
 |                   1           14            0           1                  |
 |                   2           14            0           1                  |
 |                   3           13            0           1                  |
 |                   4           11            0           1                  |
 |                   5           11            0           1                  |
 |                   6           10            1           1                  |
 |                   7            8            2           1                  |
 |                   8           10            1           1                  |
 |                   9           11            0           1                  |
 |                  10           11            0           1                  |
 |                  11           13            0           1                  |
 |                  12           14            0           1                  |
 |                  13           14            0           1                  |
 |                  14           13            0           1                  |
 |                  15           13            0           1                  |
 |                  16           11            0           1                  |
 |                  17           11            0           1                  |
 |                  18            9            2           1                  |
 |                  19            9            2           1                  |
 |                  20           11            0           1                  |
 |                  21           11            0           1                  |
 |                  22           13            0           1                  |
 |                  23           13            0           1                  |
 |                  24           14            0           1                  |
 |                  25           13            0           1                  |
 |                  26           13            0           1                  |
 |                  27           12            0           1                  |
 |                  28           11            0           1                  |
 |                  29            9            2           1                  |
 |                  30            8            2           1                  |
 |                  31            9            2           1                  |
 |                  32           11            0           1                  |
 |                  33           12            0           1                  |
 |                  34           13            0           1                  |
 |                  35           13            0           1                  |
 |                  36           13            0           1                  |
 |                  37           11            0           1                  |
 |                  38           11            0           1                  |
 |                  39           11            0           1                  |
 |                  40            9            2           1                  |
 |                  41            7            2           1                  |
 |                  42            7            2           1                  |
 |                  43            9            2           1                  |
 |                  44           11            0           1                  |
 |                  45           11            0           1                  |
 |                  46           11            0           1                  |
 |                  47           13            0           1                  |
 |                  48           13            0           1                  |
 |                  49           11            0           1                  |
 |                  50           11            0           1                  |
 |                  51            9            2           1                  |
 |                  52            7            2           1                  |
 |                  53            6            2           1                  |
 |                  54            7            2           1                  |
 |                  55            9            2           1                  |
 |                  56           11            0           1                  |
 |                  57           11            0           1                  |
 |                  58           11            0           1                  |
 |                  59           12            0           1                  |
 |                  60           11            0           1                  |
 |                  61           10            1           1                  |
 |                  62            9            2           1                  |
 |                  63            8            2           1                  |
 |                  64            7            2           1                  |
 |                  65            7            2           1                  |
 |                  66            8            2           1                  |
 |                  67            9            2           1                  |
 |                  68           10            1           1                  |
 |                  69           11            0           1                  |
 |                  70           11            0           1                  |
 |                  71           11            0           1                  |
 |                  72           11            0           1                  |
 |                  73            8            2           1                  |
 |                  74            9            2           1                  |
 |                  75            9            2           1                  |
 |                  76            9            2           1                  |
 |                  77            9            2           1                  |
 |                  78            9            2           1                  |
 |                  79            8            2           1                  |
 |                  80            9            2           1                  |
 |                  81            9            2           1                  |
 |                  82            9            2           1                  |
 |                  83            9            2           1                  |
 |                  84            9            2           1                  |
 |                  85           10            1           1                  |
 |                  86           11            0           1                  |
 |                  87           11            0           1                  |
 |                  88           11            0           1                  |
 |                  89           11            0           1                  |
 |                  90           10            1           1                  |
 |                  91            9            2           1                  |
 |                  92            8            2           1                  |
 |                  93            7            2           1                  |
 |                  94            7            2           1                  |
 |                  95            8            2           1                  |
 |                  96            9            2           1                  |
 |                  97           11            0           1                  |
 |                  98           11            0           1                  |
 |                  99           12            0           1                  |
 |                 100           11            0           1                  |
 |                 101           11            0           1                  |
 |                 102           11            0           1                  |
 |                 103            9            2           1                  |
 |                 104            7            2           1                  |
 |                 105            6            2           1                  |
 |                 106            7            2           1                  |
 |                 107            9            2           1                  |
 |                 108           11            0           1                  |
 |                 109           11            0           1                  |
 |                 110           13            0           1                  |
 |                 111           13            0           1                  |
 |                 112           11            0           1                  |
 |                 113           11            0           1                  |
 |                 114           11            0           1                  |
 |                 115            9            2           1                  |
 |                 116            7            2           1                  |
 |                 117            7            2           1                  |
 |                 118            9            2           1                  |
 |                 119           11            0           1                  |
 |                 120           11            0           1                  |
 |                 121           13            0           1                  |
 |                 122           13            0           1                  |
 |                 123           13            0           1                  |
 |                 124           13            0           1                  |
 |                 125           12            0           1                  |
 |                 126           11            0           1                  |
 |                 127            9            2           1                  |
 |                 128            8            2           1                  |
 |                 129            9            2           1                  |
 |                 130           11            0           1                  |
 |                 131           12            0           1                  |
 |                 132           13            0           1                  |
 |                 133           14            0           1                  |
 |                 134           14            0           1                  |
 |                 135           13            0           1                  |
 |                 136           13            0           1                  |
 |                 137           11            0           1                  |
 |                 138           11            0           1                  |
 |                 139            9            2           1                  |
 |                 140            9            2           1                  |
 |                 141           11            0           1                  |
 |                 142           11            0           1                  |
 |                 143           13            0           1                  |
 |                 144           13            0           1                  |
 +----------------------------------------------------------------------------+

                   Unitarised projection of Wannier functions                  
                   ------------------------------------------                  
   A_mn = <psi_m|g_n> --> S = A.A^+ --> U = S^-1/2.A
   In dis_project... done
   Using an inner window (linner = T)
   In dis_proj_froz... done

                   Extraction of optimally-connected subspace                  
                   ------------------------------------------                  
 +---------------------------------------------------------------------+<-- DIS
 |  Iter     Omega_I(i-1)      Omega_I(i)      Delta (frac.)    Time   |<-- DIS
 +---------------------------------------------------------------------+<-- DIS
       1       1.96800028       1.94397857       1.236E-02      0.00    <-- DIS
       2       1.94904995       1.93765391       5.881E-03      0.01    <-- DIS
       3       1.94226868       1.93277629       4.911E-03      0.01    <-- DIS
       4       1.93668324       1.92878645       4.094E-03      0.02    <-- DIS
       5       1.93206763       1.92541907       3.453E-03      0.02    <-- DIS
       6       1.92820100       1.92252066       2.955E-03      0.03    <-- DIS
       7       1.92491182       1.91999280       2.562E-03      0.04    <-- DIS
       8       1.92207516       1.91776790       2.246E-03      0.04    <-- DIS
       9       1.91960124       1.91579703       1.986E-03      0.05    <-- DIS
      10       1.91742487       1.91404315       1.767E-03      0.05    <-- DIS
      11       1.91549775       1.91247720       1.579E-03      0.06    <-- DIS
      12       1.91378306       1.91107571       1.417E-03      0.06    <-- DIS
      13       1.91225198       1.90981919       1.274E-03      0.07    <-- DIS
      14       1.91088132       1.90869122       1.147E-03      0.07    <-- DIS
      15       1.90965196       1.90767769       1.035E-03      0.08    <-- DIS
      16       1.90854783       1.90676636       9.343E-04      0.08    <-- DIS
      17       1.90755518       1.90594652       8.440E-04      0.09    <-- DIS
      18       1.90666213       1.90520870       7.629E-04      0.10    <-- DIS
      19       1.90585824       1.90454454       6.898E-04      0.10    <-- DIS
      20       1.90513436       1.90394655       6.239E-04      0.11    <-- DIS
      21       1.90448234       1.90340807       5.644E-04      0.11    <-- DIS
      22       1.90389493       1.90292314       5.107E-04      0.12    <-- DIS
      23       1.90336566       1.90248639       4.622E-04      0.12    <-- DIS
      24       1.90288873       1.90209304       4.183E-04      0.13    <-- DIS
      25       1.90245893       1.90173875       3.787E-04      0.13    <-- DIS
      26       1.90207160       1.90141964       3.429E-04      0.14    <-- DIS
      27       1.90172251       1.90113222       3.105E-04      0.14    <-- DIS
      28       1.90140790       1.90087334       2.812E-04      0.15    <-- DIS
      29       1.90112434       1.90064017       2.547E-04      0.16    <-- DIS
      30       1.90086878       1.90043016       2.308E-04      0.16    <-- DIS
      31       1.90063845       1.90024101       2.092E-04      0.17    <-- DIS
      32       1.90043085       1.90007065       1.896E-04      0.17    <-- DIS
      33       1.90024375       1.89991721       1.719E-04      0.18    <-- DIS
      34       1.90007511       1.89977903       1.559E-04      0.18    <-- DIS
      35       1.89992311       1.89965457       1.414E-04      0.19    <-- DIS
      36       1.89978612       1.89954249       1.283E-04      0.19    <-- DIS
      37       1.89966264       1.89944155       1.164E-04      0.20    <-- DIS
      38       1.89955134       1.89935065       1.057E-04      0.20    <-- DIS
      39       1.89945102       1.89926879       9.595E-05      0.20    <-- DIS
      40       1.89936060       1.89919506       8.716E-05      0.21    <-- DIS
      41       1.89927909       1.89912867       7.920E-05      0.21    <-- DIS
      42       1.89920562       1.89906889       7.200E-05      0.22    <-- DIS
      43       1.89913938       1.89901505       6.547E-05      0.22    <-- DIS
      44       1.89907968       1.89896657       5.956E-05      0.23    <-- DIS
      45       1.89902585       1.89892291       5.421E-05      0.23    <-- DIS
      46       1.89897732       1.89888360       4.935E-05      0.24    <-- DIS
      47       1.89893356       1.89884820       4.495E-05      0.24    <-- DIS
      48       1.89889411       1.89881633       4.097E-05      0.25    <-- DIS
      49       1.89885854       1.89878762       3.735E-05      0.25    <-- DIS
      50       1.89882646       1.89876178       3.407E-05      0.26    <-- DIS
      51       1.89879754       1.89873850       3.109E-05      0.26    <-- DIS
      52       1.89877145       1.89871755       2.839E-05      0.27    <-- DIS
      53       1.89874792       1.89869868       2.593E-05      0.27    <-- DIS
      54       1.89872670       1.89868169       2.371E-05      0.28    <-- DIS
      55       1.89870755       1.89866639       2.168E-05      0.28    <-- DIS
      56       1.89869028       1.89865262       1.984E-05      0.28    <-- DIS
      57       1.89867470       1.89864021       1.816E-05      0.29    <-- DIS
      58       1.89866064       1.89862905       1.664E-05      0.29    <-- DIS
      59       1.89864795       1.89861899       1.526E-05      0.30    <-- DIS
      60       1.89863650       1.89860994       1.399E-05      0.30    <-- DIS
      61       1.89862617       1.89860178       1.284E-05      0.31    <-- DIS
      62       1.89861684       1.89859445       1.180E-05      0.31    <-- DIS
      63       1.89860842       1.89858784       1.084E-05      0.32    <-- DIS
      64       1.89860081       1.89858189       9.969E-06      0.32    <-- DIS
      65       1.89859395       1.89857653       9.173E-06      0.33    <-- DIS
      66       1.89858774       1.89857170       8.447E-06      0.33    <-- DIS
      67       1.89858214       1.89856736       7.784E-06      0.34    <-- DIS
      68       1.89857708       1.89856345       7.177E-06      0.34    <-- DIS
      69       1.89857250       1.89855993       6.622E-06      0.35    <-- DIS
      70       1.89856837       1.89855676       6.115E-06      0.35    <-- DIS
      71       1.89856463       1.89855391       5.650E-06      0.36    <-- DIS
      72       1.89856125       1.89855134       5.224E-06      0.36    <-- DIS
      73       1.89855820       1.89854902       4.833E-06      0.36    <-- DIS
      74       1.89855543       1.89854694       4.475E-06      0.37    <-- DIS
      75       1.89855293       1.89854506       4.146E-06      0.37    <-- DIS
      76       1.89855067       1.89854338       3.844E-06      0.38    <-- DIS
      77       1.89854862       1.89854185       3.566E-06      0.38    <-- DIS
      78       1.89854677       1.89854049       3.310E-06      0.39    <-- DIS
      79       1.89854509       1.89853925       3.075E-06      0.39    <-- DIS
      80       1.89854357       1.89853814       2.859E-06      0.40    <-- DIS
      81       1.89854219       1.89853714       2.659E-06      0.40    <-- DIS
      82       1.89854094       1.89853625       2.475E-06      0.41    <-- DIS
      83       1.89853981       1.89853544       2.305E-06      0.41    <-- DIS
      84       1.89853879       1.89853471       2.148E-06      0.42    <-- DIS
      85       1.89853785       1.89853405       2.003E-06      0.42    <-- DIS
      86       1.89853701       1.89853346       1.869E-06      0.43    <-- DIS
      87       1.89853624       1.89853293       1.745E-06      0.43    <-- DIS
      88       1.89853554       1.89853245       1.631E-06      0.44    <-- DIS
      89       1.89853491       1.89853202       1.524E-06      0.44    <-- DIS
      90       1.89853433       1.89853163       1.425E-06      0.45    <-- DIS
      91       1.89853381       1.89853128       1.334E-06      0.45    <-- DIS
      92       1.89853333       1.89853096       1.249E-06      0.45    <-- DIS
      93       1.89853290       1.89853068       1.170E-06      0.46    <-- DIS
      94       1.89853251       1.89853042       1.096E-06      0.46    <-- DIS
      95       1.89853215       1.89853020       1.028E-06      0.47    <-- DIS
      96       1.89853182       1.89852999       9.643E-07      0.47    <-- DIS
      97       1.89853152       1.89852980       9.050E-07      0.48    <-- DIS
      98       1.89853125       1.89852963       8.498E-07      0.48    <-- DIS
      99       1.89853100       1.89852948       7.982E-07      0.49    <-- DIS
     100       1.89853077       1.89852935       7.501E-07      0.49    <-- DIS
     101       1.89853056       1.89852923       7.052E-07      0.50    <-- DIS
     102       1.89853037       1.89852912       6.633E-07      0.50    <-- DIS
     103       1.89853020       1.89852902       6.240E-07      0.51    <-- DIS
     104       1.89853004       1.89852893       5.874E-07      0.51    <-- DIS
     105       1.89852990       1.89852885       5.530E-07      0.52    <-- DIS
     106       1.89852976       1.89852877       5.209E-07      0.52    <-- DIS
     107       1.89852964       1.89852871       4.907E-07      0.53    <-- DIS
     108       1.89852953       1.89852865       4.625E-07      0.53    <-- DIS
     109       1.89852943       1.89852860       4.360E-07      0.54    <-- DIS
     110       1.89852933       1.89852855       4.112E-07      0.54    <-- DIS
     111       1.89852924       1.89852851       3.878E-07      0.54    <-- DIS
     112       1.89852916       1.89852847       3.660E-07      0.55    <-- DIS
     113       1.89852909       1.89852843       3.454E-07      0.55    <-- DIS
     114       1.89852902       1.89852840       3.260E-07      0.56    <-- DIS
     115       1.89852896       1.89852837       3.079E-07      0.56    <-- DIS
     116       1.89852890       1.89852835       2.908E-07      0.57    <-- DIS
     117       1.89852885       1.89852833       2.747E-07      0.57    <-- DIS
     118       1.89852880       1.89852831       2.595E-07      0.58    <-- DIS
     119       1.89852875       1.89852829       2.453E-07      0.58    <-- DIS
     120       1.89852871       1.89852827       2.318E-07      0.59    <-- DIS
     121       1.89852867       1.89852826       2.192E-07      0.59    <-- DIS
     122       1.89852864       1.89852824       2.072E-07      0.60    <-- DIS
     123       1.89852860       1.89852823       1.960E-07      0.60    <-- DIS
     124       1.89852857       1.89852822       1.854E-07      0.61    <-- DIS
     125       1.89852854       1.89852821       1.754E-07      0.61    <-- DIS
     126       1.89852852       1.89852820       1.659E-07      0.62    <-- DIS
     127       1.89852849       1.89852819       1.570E-07      0.62    <-- DIS
     128       1.89852847       1.89852818       1.486E-07      0.62    <-- DIS
     129       1.89852845       1.89852818       1.406E-07      0.63    <-- DIS
     130       1.89852843       1.89852817       1.331E-07      0.63    <-- DIS
     131       1.89852841       1.89852817       1.260E-07      0.64    <-- DIS
     132       1.89852839       1.89852816       1.193E-07      0.64    <-- DIS
     133       1.89852837       1.89852816       1.130E-07      0.65    <-- DIS
     134       1.89852836       1.89852815       1.070E-07      0.65    <-- DIS
     135       1.89852834       1.89852815       1.014E-07      0.66    <-- DIS
     136       1.89852833       1.89852815       9.602E-08      0.66    <-- DIS
     137       1.89852832       1.89852815       9.096E-08      0.67    <-- DIS
     138       1.89852831       1.89852814       8.617E-08      0.67    <-- DIS
     139       1.89852830       1.89852814       8.165E-08      0.68    <-- DIS
     140       1.89852829       1.89852814       7.736E-08      0.68    <-- DIS
     141       1.89852828       1.89852814       7.331E-08      0.69    <-- DIS
     142       1.89852827       1.89852814       6.947E-08      0.69    <-- DIS
     143       1.89852826       1.89852813       6.583E-08      0.70    <-- DIS
     144       1.89852825       1.89852813       6.240E-08      0.70    <-- DIS
     145       1.89852824       1.89852813       5.914E-08      0.71    <-- DIS
     146       1.89852824       1.89852813       5.606E-08      0.71    <-- DIS
     147       1.89852823       1.89852813       5.314E-08      0.71    <-- DIS
     148       1.89852822       1.89852813       5.037E-08      0.72    <-- DIS
     149       1.89852822       1.89852813       4.775E-08      0.72    <-- DIS
     150       1.89852821       1.89852813       4.527E-08      0.73    <-- DIS
     151       1.89852821       1.89852813       4.292E-08      0.73    <-- DIS
     152       1.89852820       1.89852813       4.070E-08      0.74    <-- DIS
     153       1.89852820       1.89852812       3.859E-08      0.74    <-- DIS
     154       1.89852819       1.89852812       3.659E-08      0.75    <-- DIS
     155       1.89852819       1.89852812       3.469E-08      0.75    <-- DIS
     156       1.89852819       1.89852812       3.290E-08      0.76    <-- DIS
     157       1.89852818       1.89852812       3.120E-08      0.76    <-- DIS
     158       1.89852818       1.89852812       2.959E-08      0.77    <-- DIS
     159       1.89852818       1.89852812       2.806E-08      0.77    <-- DIS
     160       1.89852817       1.89852812       2.661E-08      0.78    <-- DIS
     161       1.89852817       1.89852812       2.524E-08      0.78    <-- DIS
     162       1.89852817       1.89852812       2.393E-08      0.79    <-- DIS
     163       1.89852816       1.89852812       2.270E-08      0.79    <-- DIS
     164       1.89852816       1.89852812       2.153E-08      0.80    <-- DIS
     165       1.89852816       1.89852812       2.042E-08      0.80    <-- DIS
     166       1.89852816       1.89852812       1.937E-08      0.80    <-- DIS
     167       1.89852816       1.89852812       1.837E-08      0.81    <-- DIS
     168       1.89852815       1.89852812       1.743E-08      0.81    <-- DIS
     169       1.89852815       1.89852812       1.653E-08      0.82    <-- DIS
     170       1.89852815       1.89852812       1.568E-08      0.82    <-- DIS
     171       1.89852815       1.89852812       1.487E-08      0.83    <-- DIS
     172       1.89852815       1.89852812       1.411E-08      0.83    <-- DIS
     173       1.89852815       1.89852812       1.338E-08      0.84    <-- DIS
     174       1.89852814       1.89852812       1.270E-08      0.84    <-- DIS
     175       1.89852814       1.89852812       1.204E-08      0.85    <-- DIS
     176       1.89852814       1.89852812       1.143E-08      0.85    <-- DIS
     177       1.89852814       1.89852812       1.084E-08      0.86    <-- DIS
     178       1.89852814       1.89852812       1.028E-08      0.86    <-- DIS
[...]
     180       1.89852814       1.89852812       9.254E-09      0.87    <-- DIS
     181       1.89852814       1.89852812       8.780E-09      0.88    <-- DIS
     182       1.89852814       1.89852812       8.329E-09      0.88    <-- DIS
     183       1.89852814       1.89852812       7.902E-09      0.88    <-- DIS
     184       1.89852813       1.89852812       7.497E-09      0.89    <-- DIS
     185       1.89852813       1.89852812       7.112E-09      0.89    <-- DIS
     186       1.89852813       1.89852812       6.748E-09      0.90    <-- DIS
     187       1.89852813       1.89852812       6.402E-09      0.90    <-- DIS
     188       1.89852813       1.89852812       6.073E-09      0.91    <-- DIS
     189       1.89852813       1.89852812       5.762E-09      0.91    <-- DIS
     190       1.89852813       1.89852812       5.467E-09      0.92    <-- DIS
     191       1.89852813       1.89852812       5.187E-09      0.92    <-- DIS
     192       1.89852813       1.89852812       4.921E-09      0.93    <-- DIS
     193       1.89852813       1.89852812       4.669E-09      0.93    <-- DIS
     194       1.89852813       1.89852812       4.430E-09      0.94    <-- DIS
     195       1.89852813       1.89852812       4.203E-09      0.94    <-- DIS
     196       1.89852813       1.89852812       3.987E-09      0.95    <-- DIS
     197       1.89852813       1.89852812       3.783E-09      0.95    <-- DIS
     198       1.89852813       1.89852812       3.589E-09      0.96    <-- DIS
     199       1.89852813       1.89852812       3.406E-09      0.96    <-- DIS
     200       1.89852813       1.89852812       3.231E-09      0.97    <-- DIS
     201       1.89852813       1.89852812       3.066E-09      0.97    <-- DIS
     202       1.89852813       1.89852812       2.909E-09      0.97    <-- DIS
     203       1.89852813       1.89852812       2.760E-09      0.98    <-- DIS
     204       1.89852813       1.89852812       2.619E-09      0.98    <-- DIS
     205       1.89852812       1.89852812       2.485E-09      0.99    <-- DIS
     206       1.89852812       1.89852812       2.357E-09      0.99    <-- DIS
     207       1.89852812       1.89852812       2.237E-09      1.00    <-- DIS
     208       1.89852812       1.89852812       2.122E-09      1.00    <-- DIS
     209       1.89852812       1.89852812       2.014E-09      1.01    <-- DIS
     210       1.89852812       1.89852812       1.910E-09      1.01    <-- DIS
     211       1.89852812       1.89852812       1.813E-09      1.02    <-- DIS
     212       1.89852812       1.89852812       1.720E-09      1.02    <-- DIS
     213       1.89852812       1.89852812       1.632E-09      1.03    <-- DIS
     214       1.89852812       1.89852812       1.548E-09      1.03    <-- DIS
     215       1.89852812       1.89852812       1.469E-09      1.04    <-- DIS
     216       1.89852812       1.89852812       1.394E-09      1.04    <-- DIS
     217       1.89852812       1.89852812       1.323E-09      1.05    <-- DIS
     218       1.89852812       1.89852812       1.255E-09      1.05    <-- DIS
     219       1.89852812       1.89852812       1.191E-09      1.06    <-- DIS
     220       1.89852812       1.89852812       1.130E-09      1.06    <-- DIS
     221       1.89852812       1.89852812       1.072E-09      1.06    <-- DIS
     222       1.89852812       1.89852812       1.017E-09      1.07    <-- DIS
     223       1.89852812       1.89852812       9.651E-10      1.07    <-- DIS
     224       1.89852812       1.89852812       9.157E-10      1.08    <-- DIS
     225       1.89852812       1.89852812       8.689E-10      1.08    <-- DIS
     226       1.89852812       1.89852812       8.244E-10      1.09    <-- DIS
     227       1.89852812       1.89852812       7.822E-10      1.09    <-- DIS
     228       1.89852812       1.89852812       7.422E-10      1.10    <-- DIS
     229       1.89852812       1.89852812       7.042E-10      1.10    <-- DIS
     230       1.89852812       1.89852812       6.682E-10      1.11    <-- DIS
     231       1.89852812       1.89852812       6.340E-10      1.11    <-- DIS
     232       1.89852812       1.89852812       6.016E-10      1.12    <-- DIS
     233       1.89852812       1.89852812       5.708E-10      1.12    <-- DIS
     234       1.89852812       1.89852812       5.416E-10      1.13    <-- DIS
     235       1.89852812       1.89852812       5.139E-10      1.13    <-- DIS
     236       1.89852812       1.89852812       4.876E-10      1.14    <-- DIS
     237       1.89852812       1.89852812       4.627E-10      1.14    <-- DIS
     238       1.89852812       1.89852812       4.390E-10      1.15    <-- DIS
     239       1.89852812       1.89852812       4.165E-10      1.15    <-- DIS
     240       1.89852812       1.89852812       3.952E-10      1.16    <-- DIS
     241       1.89852812       1.89852812       3.750E-10      1.16    <-- DIS
     242       1.89852812       1.89852812       3.558E-10      1.16    <-- DIS
     243       1.89852812       1.89852812       3.376E-10      1.17    <-- DIS
     244       1.89852812       1.89852812       3.203E-10      1.17    <-- DIS
     245       1.89852812       1.89852812       3.040E-10      1.18    <-- DIS
     246       1.89852812       1.89852812       2.884E-10      1.18    <-- DIS
     247       1.89852812       1.89852812       2.737E-10      1.19    <-- DIS
     248       1.89852812       1.89852812       2.597E-10      1.19    <-- DIS
     249       1.89852812       1.89852812       2.464E-10      1.20    <-- DIS
     250       1.89852812       1.89852812       2.338E-10      1.20    <-- DIS
     251       1.89852812       1.89852812       2.218E-10      1.21    <-- DIS
     252       1.89852812       1.89852812       2.105E-10      1.21    <-- DIS
     253       1.89852812       1.89852812       1.997E-10      1.22    <-- DIS
     254       1.89852812       1.89852812       1.895E-10      1.22    <-- DIS
     255       1.89852812       1.89852812       1.798E-10      1.23    <-- DIS
     256       1.89852812       1.89852812       1.706E-10      1.23    <-- DIS
     257       1.89852812       1.89852812       1.619E-10      1.24    <-- DIS
     258       1.89852812       1.89852812       1.536E-10      1.24    <-- DIS
     259       1.89852812       1.89852812       1.457E-10      1.25    <-- DIS
     260       1.89852812       1.89852812       1.383E-10      1.25    <-- DIS
     261       1.89852812       1.89852812       1.312E-10      1.25    <-- DIS
     262       1.89852812       1.89852812       1.245E-10      1.26    <-- DIS
     263       1.89852812       1.89852812       1.181E-10      1.26    <-- DIS
     264       1.89852812       1.89852812       1.121E-10      1.27    <-- DIS
     265       1.89852812       1.89852812       1.063E-10      1.27    <-- DIS
     266       1.89852812       1.89852812       1.009E-10      1.28    <-- DIS
     267       1.89852812       1.89852812       9.575E-11      1.28    <-- DIS
     268       1.89852812       1.89852812       9.085E-11      1.29    <-- DIS
     269       1.89852812       1.89852812       8.620E-11      1.29    <-- DIS
     270       1.89852812       1.89852812       8.179E-11      1.30    <-- DIS
     271       1.89852812       1.89852812       7.761E-11      1.30    <-- DIS

             <<<      Delta < 1.000E-10  over  5 iterations     >>>
             <<< Disentanglement convergence criteria satisfied >>>

        Final Omega_I     1.89852812 (Ang^2)

 +----------------------------------------------------------------------------+


 Writing checkpoint file graphene.chk... done

 Time to disentangle            1.365 (sec)
 
 *------------------------------- WANNIERISE ---------------------------------*
 +--------------------------------------------------------------------+<-- CONV
 | Iter  Delta Spread     RMS Gradient      Spread (Ang^2)      Time  |<-- CONV
 +--------------------------------------------------------------------+<-- CONV
 
 ------------------------------------------------------------------------------
 Initial State
  WF centre and spread    1  ( -0.000000,  1.424343,  7.500000 )     0.95754228
  WF centre and spread    2  (  1.233517,  0.712171,  7.500000 )     0.95754228
  Sum of centres and spreads (  1.233517,  2.136514, 15.000000 )     1.91508456
 
      0     0.192E+01     0.0000000000        1.9150848812       1.32  <-- CONV
        O_D=      0.0132022 O_OD=      0.0033545 O_TOT=      1.9150849 <-- SPRD
 ------------------------------------------------------------------------------
 Cycle:      1
  WF centre and spread    1  ( -0.000000,  1.424343,  7.500000 )     0.95746010
  WF centre and spread    2  (  1.233517,  0.712171,  7.500000 )     0.95746010
  Sum of centres and spreads (  1.233517,  2.136514, 15.000000 )     1.91492020
 
      1    -0.164E-03     0.0099220654        1.9149205235       1.42  <-- CONV
        O_D=      0.0130379 O_OD=      0.0033545 O_TOT=      1.9149205 <-- SPRD
 Delta: O_D= -0.1643577E-03 O_OD=  0.4336809E-18 O_TOT= -0.1643577E-03 <-- DLTA
 ------------------------------------------------------------------------------
 Cycle:      2
  WF centre and spread    1  ( -0.000000,  1.424343,  7.500000 )     0.95744618
  WF centre and spread    2  (  1.233517,  0.712171,  7.500000 )     0.95744618
  Sum of centres and spreads (  1.233517,  2.136514, 15.000000 )     1.91489237
 
      2    -0.278E-04     0.0072926098        1.9148926913       1.53  <-- CONV
        O_D=      0.0130100 O_OD=      0.0033545 O_TOT=      1.9148927 <-- SPRD
 Delta: O_D= -0.2783224E-04 O_OD= -0.1734723E-17 O_TOT= -0.2783224E-04 <-- DLTA
 ------------------------------------------------------------------------------
 Cycle:      3
  WF centre and spread    1  ( -0.000000,  1.424343,  7.500000 )     0.95744530
  WF centre and spread    2  (  1.233517,  0.712171,  7.500000 )     0.95744530
  Sum of centres and spreads (  1.233517,  2.136514, 15.000000 )     1.91489060
 
      3    -0.177E-05     0.0015006559        1.9148909205       1.64  <-- CONV
        O_D=      0.0130083 O_OD=      0.0033545 O_TOT=      1.9148909 <-- SPRD
 Delta: O_D= -0.1770789E-05 O_OD=  0.8673617E-17 O_TOT= -0.1770789E-05 <-- DLTA
 ------------------------------------------------------------------------------
 Cycle:      4
  WF centre and spread    1  ( -0.000000,  1.424343,  7.500000 )     0.95744521
  WF centre and spread    2  (  1.233517,  0.712171,  7.500000 )     0.95744521
  Sum of centres and spreads (  1.233517,  2.136514, 15.000000 )     1.91489041
 
      4    -0.184E-06     0.0005950368        1.9148907368       1.73  <-- CONV
        O_D=      0.0130081 O_OD=      0.0033545 O_TOT=      1.9148907 <-- SPRD
 Delta: O_D= -0.1837169E-06 O_OD= -0.2602085E-17 O_TOT= -0.1837169E-06 <-- DLTA
 ------------------------------------------------------------------------------
 Cycle:      5
  WF centre and spread    1  ( -0.000000,  1.424343,  7.500000 )     0.95744520
  WF centre and spread    2  (  1.233517,  0.712171,  7.500000 )     0.95744520
  Sum of centres and spreads (  1.233517,  2.136514, 15.000000 )     1.91489041
 
      5    -0.573E-08     0.0001127328        1.9148907310       1.84  <-- CONV
        O_D=      0.0130081 O_OD=      0.0033545 O_TOT=      1.9148907 <-- SPRD
 Delta: O_D= -0.5725176E-08 O_OD=  0.8673617E-18 O_TOT= -0.5725176E-08 <-- DLTA
 ------------------------------------------------------------------------------
 Cycle:      6
  WF centre and spread    1  ( -0.000000,  1.424343,  7.500000 )     0.95744520
  WF centre and spread    2  (  1.233517,  0.712171,  7.500000 )     0.95744520
  Sum of centres and spreads (  1.233517,  2.136514, 15.000000 )     1.91489041
 
      6    -0.178E-09     0.0000173628        1.9148907308       1.94  <-- CONV
        O_D=      0.0130081 O_OD=      0.0033545 O_TOT=      1.9148907 <-- SPRD
 Delta: O_D= -0.1775973E-09 O_OD= -0.4770490E-17 O_TOT= -0.1775973E-09 <-- DLTA
 ------------------------------------------------------------------------------
 Cycle:      7
  WF centre and spread    1  ( -0.000000,  1.424343,  7.500000 )     0.95744520
  WF centre and spread    2  (  1.233517,  0.712171,  7.500000 )     0.95744520
  Sum of centres and spreads (  1.233517,  2.136514, 15.000000 )     1.91489041
 
      7    -0.409E-13     0.0000017880        1.9148907308       2.00  <-- CONV
        O_D=      0.0130081 O_OD=      0.0033545 O_TOT=      1.9148907 <-- SPRD
 Delta: O_D= -0.4067580E-13 O_OD=  0.9540979E-17 O_TOT= -0.4085621E-13 <-- DLTA
 ------------------------------------------------------------------------------
 Cycle:      8
  WF centre and spread    1  ( -0.000000,  1.424343,  7.500000 )     0.95744520
  WF centre and spread    2  (  1.233517,  0.712171,  7.500000 )     0.95744520
  Sum of centres and spreads (  1.233517,  2.136514, 15.000000 )     1.91489041
 
      8    -0.117E-11     0.0000017578        1.9148907308       2.08  <-- CONV
        O_D=      0.0130081 O_OD=      0.0033545 O_TOT=      1.9148907 <-- SPRD
 Delta: O_D= -0.1173015E-11 O_OD=  0.0000000E+00 O_TOT= -0.1172840E-11 <-- DLTA
 ------------------------------------------------------------------------------
 Cycle:      9
  WF centre and spread    1  ( -0.000000,  1.424343,  7.500000 )     0.95744520
  WF centre and spread    2  (  1.233517,  0.712171,  7.500000 )     0.95744520
  Sum of centres and spreads (  1.233517,  2.136514, 15.000000 )     1.91489041
 
      9    -0.111E-14     0.0000002734        1.9148907308       2.15  <-- CONV
        O_D=      0.0130081 O_OD=      0.0033545 O_TOT=      1.9148907 <-- SPRD
 Delta: O_D= -0.9280771E-15 O_OD= -0.3469447E-17 O_TOT= -0.1110223E-14 <-- DLTA
 ------------------------------------------------------------------------------
 Cycle:     10
  WF centre and spread    1  ( -0.000000,  1.424343,  7.500000 )     0.95744520
  WF centre and spread    2  (  1.233517,  0.712171,  7.500000 )     0.95744520
  Sum of centres and spreads (  1.233517,  2.136514, 15.000000 )     1.91489041
 
     10    -0.178E-14     0.0000002728        1.9148907308       2.19  <-- CONV
        O_D=      0.0130081 O_OD=      0.0033545 O_TOT=      1.9148907 <-- SPRD
 Delta: O_D= -0.1847481E-14 O_OD=  0.5204170E-17 O_TOT= -0.1776357E-14 <-- DLTA
 ------------------------------------------------------------------------------
 Cycle:     11
  WF centre and spread    1  ( -0.000000,  1.424343,  7.500000 )     0.95744520
  WF centre and spread    2  (  1.233517,  0.712171,  7.500000 )     0.95744520
  Sum of centres and spreads (  1.233517,  2.136514, 15.000000 )     1.91489041
 
     11    -0.266E-14     0.0000002712        1.9148907308       2.22  <-- CONV
        O_D=      0.0130081 O_OD=      0.0033545 O_TOT=      1.9148907 <-- SPRD
 Delta: O_D= -0.2785966E-14 O_OD= -0.8673617E-17 O_TOT= -0.2664535E-14 <-- DLTA
 ------------------------------------------------------------------------------
 Cycle:     12
  WF centre and spread    1  ( -0.000000,  1.424343,  7.500000 )     0.95744520
  WF centre and spread    2  (  1.233517,  0.712171,  7.500000 )     0.95744520
  Sum of centres and spreads (  1.233517,  2.136514, 15.000000 )     1.91489041
 
     12    -0.355E-14     0.0000002686        1.9148907308       2.30  <-- CONV
        O_D=      0.0130081 O_OD=      0.0033545 O_TOT=      1.9148907 <-- SPRD
 Delta: O_D= -0.3544040E-14 O_OD=  0.4336809E-18 O_TOT= -0.3552714E-14 <-- DLTA
 ------------------------------------------------------------------------------
 Cycle:     13
  WF centre and spread    1  ( -0.000000,  1.424343,  7.500000 )     0.95744520
  WF centre and spread    2  (  1.233517,  0.712171,  7.500000 )     0.95744520
  Sum of centres and spreads (  1.233517,  2.136514, 15.000000 )     1.91489041
 
     13    -0.111E-14     0.0000002653        1.9148907308       2.37  <-- CONV
        O_D=      0.0130081 O_OD=      0.0033545 O_TOT=      1.9148907 <-- SPRD
 Delta: O_D= -0.9575674E-15 O_OD=  0.4770490E-17 O_TOT= -0.1110223E-14 <-- DLTA
 ------------------------------------------------------------------------------
 Cycle:     14
  WF centre and spread    1  ( -0.000000,  1.424343,  7.500000 )     0.95744520
  WF centre and spread    2  (  1.233517,  0.712171,  7.500000 )     0.95744520
  Sum of centres and spreads (  1.233517,  2.136514, 15.000000 )     1.91489041
 
     14    -0.178E-14     0.0000002645        1.9148907308       2.41  <-- CONV
        O_D=      0.0130081 O_OD=      0.0033545 O_TOT=      1.9148907 <-- SPRD
 Delta: O_D= -0.1759010E-14 O_OD=  0.1301043E-17 O_TOT= -0.1776357E-14 <-- DLTA
 ------------------------------------------------------------------------------
 Cycle:     15
  WF centre and spread    1  ( -0.000000,  1.424343,  7.500000 )     0.95744520
  WF centre and spread    2  (  1.233517,  0.712171,  7.500000 )     0.95744520
  Sum of centres and spreads (  1.233517,  2.136514, 15.000000 )     1.91489041
 
     15    -0.266E-14     0.0000002628        1.9148907308       2.49  <-- CONV
        O_D=      0.0130081 O_OD=      0.0033545 O_TOT=      1.9148907 <-- SPRD
 Delta: O_D= -0.2692291E-14 O_OD=  0.0000000E+00 O_TOT= -0.2664535E-14 <-- DLTA
 ------------------------------------------------------------------------------
 Cycle:     16
  WF centre and spread    1  ( -0.000000,  1.424343,  7.500000 )     0.95744520
  WF centre and spread    2  (  1.233517,  0.712171,  7.500000 )     0.95744520
  Sum of centres and spreads (  1.233517,  2.136514, 15.000000 )     1.91489041
 
     16    -0.333E-14     0.0000002603        1.9148907308       2.52  <-- CONV
        O_D=      0.0130081 O_OD=      0.0033545 O_TOT=      1.9148907 <-- SPRD
 Delta: O_D= -0.3358425E-14 O_OD=  0.8239937E-17 O_TOT= -0.3330669E-14 <-- DLTA
 ------------------------------------------------------------------------------

             <<<     Delta < 1.000E-10  over 10 iterations     >>>
             <<< Wannierisation convergence criteria satisfied >>>

 Final State
  WF centre and spread    1  ( -0.000000,  1.424343,  7.500000 )     0.95744520
  WF centre and spread    2  (  1.233517,  0.712171,  7.500000 )     0.95744520
  Sum of centres and spreads (  1.233517,  2.136514, 15.000000 )     1.91489041
 
         Spreads (Ang^2)       Omega I      =     1.898528120
        ================       Omega D      =     0.013008066
                               Omega OD     =     0.003354545
    Final Spread (Ang^2)       Omega Total  =     1.914890731
 ------------------------------------------------------------------------------

 Writing checkpoint file graphene.chk... done

 Time for wannierise            0.042 (sec)
 *---------------------------------------------------------------------------*
 |                               PLOTTING                                    |
 *---------------------------------------------------------------------------*
 
 Time for plotting              0.045 (sec)
 Total Execution Time           1.599 (sec)

 *===========================================================================*
 |                             TIMING INFORMATION                            |
 *===========================================================================*
 |    Tag                                                Ncalls      Time (s)|
 |---------------------------------------------------------------------------|
 |kmesh: get                                        :         2         0.216|
 |kmesh: write                                      :         1         0.002|
 |overlap: allocate                                 :         1         0.000|
 |dis: main                                         :         1         1.323|
 |wann: main                                        :         1         0.042|
 |plot: main                                        :         1         0.045|
 *---------------------------------------------------------------------------*
 
 All done: wannier90 exiting
