
     Program PWSCF v.7.0 starts on 23Jun2022 at  0:43: 6 

     This program is part of the open-source Quantum ESPRESSO suite
     for quantum simulation of materials; please cite
         "P. Giannozzi et al., J. Phys.:Condens. Matter 21 395502 (2009);
         "P. Giannozzi et al., J. Phys.:Condens. Matter 29 465901 (2017);
         "P. Giannozzi et al., J. Chem. Phys. 152 154105 (2020);
          URL http://www.quantum-espresso.org", 
     in publications or presentations arising from this work. More details at
     http://www.quantum-espresso.org/quote

     Parallel version (MPI & OpenMP), running on      28 processor cores
     Number of MPI processes:                28
     Threads/MPI process:                     1

     MPI processes distributed on     1 nodes
     K-points division:     npool     =       7
     R & G space division:  proc/nbgrp/npool/nimage =       4
     55061 MiB available memory on the printing compute node when the environment starts
 
     Waiting for input...
     Reading input from standard input

     Current dimensions of program PWSCF are:
     Max number of different atomic species (ntypx) = 10
     Max number of k-points (npk) =  40000
     Max angular momentum in pseudopotentials (lmaxx) =  4
     file C.pbe-n-kjpaw_psl.1.0.0.UPF: wavefunction(s)  2S 2P renormalized
     Found identity + (  0.3333 -0.0000  0.0000) symmetry
     This is a supercell, fractional translations are disabled

     Subspace diagonalization in iterative solution of the eigenvalue problem:
     one sub-group per band group will be used
     scalapack distributed-memory algorithm (size of sub-group:  2*  2 procs)

 
     Parallelization info
     --------------------
     sticks:   dense  smooth     PW     G-vecs:    dense   smooth      PW
     Min        1616    1075    289               284310   154713   21365
     Max        1618    1076    290               284314   154726   21372
     Sum        6469    4303   1159              1137251   618881   85473
 
     Using Slab Decomposition
 


     bravais-lattice index     =            4
     lattice parameter (alat)  =      13.9870  a.u.
     unit-cell volume          =    6403.3432 (a.u.)^3
     number of atoms/cell      =           18
     number of atomic types    =            1
     number of electrons       =        72.00
     number of Kohn-Sham states=           43
     kinetic-energy cutoff     =      80.0000  Ry
     charge density cutoff     =     480.0000  Ry
     scf convergence threshold =      1.0E-14
     mixing beta               =       0.7000
     number of iterations used =            8  plain     mixing
     energy convergence thresh.=      1.0E-07
     force convergence thresh. =      1.0E-06
     press convergence thresh. =      1.0E-02
     Exchange-correlation= SLA  PW   PBX  PBC
                           (   1   4   3   4   0   0   0)
     nstep                     =           50


     celldm(1)=  13.986970  celldm(2)=   0.000000  celldm(3)=   2.702124
     celldm(4)=   0.000000  celldm(5)=   0.000000  celldm(6)=   0.000000

     crystal axes: (cart. coord. in units of alat)
               a(1) = (   1.000000   0.000000   0.000000 )  
               a(2) = (  -0.500000   0.866025   0.000000 )  
               a(3) = (   0.000000   0.000000   2.702124 )  

     reciprocal axes: (cart. coord. in units 2 pi/alat)
               b(1) = (  1.000000  0.577350  0.000000 )  
               b(2) = (  0.000000  1.154701  0.000000 )  
               b(3) = (  0.000000  0.000000  0.370079 )  

Write cell and positions for Wanner90.x
begin unit_cell_cart
Bohr
       13.9869699   0.0000000   0.0000000
       -6.9934850  12.1130713   0.0000000
        0.0000000   0.0000000  37.7945225
end unit_cell_cart

begin atoms_cart
Bohr
        C           0.0000000   2.6918193  18.8972612
        C           2.3311839   1.3459096  18.8972612
        C           4.6623425   2.6918047  18.8972612
        C           6.9934850   1.3459003  18.8972612
        C           9.3246274   2.6918047  18.8972612
        C          11.6557860   1.3459096  18.8972612
        C          -2.3311586   6.7294858  18.8972612
        C           0.0000000   5.3836094  18.8972612
        C           2.3311586   6.7294858  18.8972612
        C           4.6623263   5.3835855  18.8972612
        C           6.9934850   6.7294618  18.8972612
        C           9.3246436   5.3835855  18.8972612
        C          -4.6623011  10.7671616  18.8972612
        C          -2.3311424   9.4212666  18.8972612
        C           0.0000000  10.7671710  18.8972612
        C           2.3311424   9.4212666  18.8972612
        C           4.6623011  10.7671616  18.8972612
        C           6.9934850   9.4212520  18.8972612
end atoms_cart

     PseudoPot. # 1 for C  read from file:
     ./pseudo/C.pbe-n-kjpaw_psl.1.0.0.UPF
     MD5 check sum: 6fec8efd722f5d988670a8dc528584a2
     Pseudo is Projector augmented-wave + core cor, Zval =  4.0
     Generated using "atomic" code by A. Dal Corso  v.5.1.2
     Shape of augmentation charge: PSQ
     Using radial grid of 1073 points,  4 beta functions with: 
                l(1) =   0
                l(2) =   0
                l(3) =   1
                l(4) =   1
     Q(r) pseudized with 0 coefficients 


     atomic species   valence    mass     pseudopotential
        C              4.00    12.01070     C ( 1.00)

     24 Sym. Ops., with inversion, found


                                    s                        frac. trans.

      isym =  1     identity                                     

 cryst.   s( 1) = (     1          0          0      )
                  (     0          1          0      )
                  (     0          0          1      )

 cart.    s( 1) = (  1.0000000  0.0000000  0.0000000 )
                  (  0.0000000  1.0000000  0.0000000 )
                  (  0.0000000  0.0000000  1.0000000 )


      isym =  2     180 deg rotation - cart. axis [0,0,1]        

 cryst.   s( 2) = (    -1          0          0      )
                  (     0         -1          0      )
                  (     0          0          1      )

 cart.    s( 2) = ( -1.0000000  0.0000000  0.0000000 )
                  (  0.0000000 -1.0000000  0.0000000 )
                  (  0.0000000  0.0000000  1.0000000 )


      isym =  3     180 deg rotation - cart. axis [0,1,0]        

 cryst.   s( 3) = (    -1          0          0      )
                  (     1          1          0      )
                  (     0          0         -1      )

 cart.    s( 3) = ( -1.0000000  0.0000000  0.0000000 )
                  (  0.0000000  1.0000000  0.0000000 )
                  (  0.0000000  0.0000000 -1.0000000 )


      isym =  4     180 deg rotation - cart. axis [1,0,0]        

 cryst.   s( 4) = (     1          0          0      )
                  (    -1         -1          0      )
                  (     0          0         -1      )

 cart.    s( 4) = (  1.0000000  0.0000000  0.0000000 )
                  (  0.0000000 -1.0000000  0.0000000 )
                  (  0.0000000  0.0000000 -1.0000000 )


      isym =  5      60 deg rotation - cryst. axis [0,0,1]       

 cryst.   s( 5) = (     1          1          0      )
                  (    -1          0          0      )
                  (     0          0          1      )

 cart.    s( 5) = (  0.5000000 -0.8660254  0.0000000 )
                  (  0.8660254  0.5000000  0.0000000 )
                  (  0.0000000  0.0000000  1.0000000 )


      isym =  6      60 deg rotation - cryst. axis [0,0,-1]      

 cryst.   s( 6) = (     0         -1          0      )
                  (     1          1          0      )
                  (     0          0          1      )

 cart.    s( 6) = (  0.5000000  0.8660254  0.0000000 )
                  ( -0.8660254  0.5000000  0.0000000 )
                  (  0.0000000  0.0000000  1.0000000 )


      isym =  7     120 deg rotation - cryst. axis [0,0,1]       

 cryst.   s( 7) = (     0          1          0      )
                  (    -1         -1          0      )
                  (     0          0          1      )

 cart.    s( 7) = ( -0.5000000 -0.8660254  0.0000000 )
                  (  0.8660254 -0.5000000  0.0000000 )
                  (  0.0000000  0.0000000  1.0000000 )


      isym =  8     120 deg rotation - cryst. axis [0,0,-1]      

 cryst.   s( 8) = (    -1         -1          0      )
                  (     1          0          0      )
                  (     0          0          1      )

 cart.    s( 8) = ( -0.5000000  0.8660254  0.0000000 )
                  ( -0.8660254 -0.5000000  0.0000000 )
                  (  0.0000000  0.0000000  1.0000000 )


      isym =  9     180 deg rotation - cryst. axis [1,-1,0]      

 cryst.   s( 9) = (     0         -1          0      )
                  (    -1          0          0      )
                  (     0          0         -1      )

 cart.    s( 9) = (  0.5000000 -0.8660254  0.0000000 )
                  ( -0.8660254 -0.5000000  0.0000000 )
                  (  0.0000000  0.0000000 -1.0000000 )


      isym = 10     180 deg rotation - cryst. axis [2,1,0]       

 cryst.   s(10) = (     1          1          0      )
                  (     0         -1          0      )
                  (     0          0         -1      )

 cart.    s(10) = (  0.5000000  0.8660254  0.0000000 )
                  (  0.8660254 -0.5000000  0.0000000 )
                  (  0.0000000  0.0000000 -1.0000000 )


      isym = 11     180 deg rotation - cryst. axis [0,1,0]       

 cryst.   s(11) = (    -1         -1          0      )
                  (     0          1          0      )
                  (     0          0         -1      )

 cart.    s(11) = ( -0.5000000 -0.8660254  0.0000000 )
                  ( -0.8660254  0.5000000  0.0000000 )
                  (  0.0000000  0.0000000 -1.0000000 )


      isym = 12     180 deg rotation - cryst. axis [1,1,0]       

 cryst.   s(12) = (     0          1          0      )
                  (     1          0          0      )
                  (     0          0         -1      )

 cart.    s(12) = ( -0.5000000  0.8660254  0.0000000 )
                  (  0.8660254  0.5000000  0.0000000 )
                  (  0.0000000  0.0000000 -1.0000000 )


      isym = 13     inversion                                    

 cryst.   s(13) = (    -1          0          0      )
                  (     0         -1          0      )
                  (     0          0         -1      )

 cart.    s(13) = ( -1.0000000  0.0000000  0.0000000 )
                  (  0.0000000 -1.0000000  0.0000000 )
                  (  0.0000000  0.0000000 -1.0000000 )


      isym = 14     inv. 180 deg rotation - cart. axis [0,0,1]   

 cryst.   s(14) = (     1          0          0      )
                  (     0          1          0      )
                  (     0          0         -1      )

 cart.    s(14) = (  1.0000000  0.0000000  0.0000000 )
                  (  0.0000000  1.0000000  0.0000000 )
                  (  0.0000000  0.0000000 -1.0000000 )


      isym = 15     inv. 180 deg rotation - cart. axis [0,1,0]   

 cryst.   s(15) = (     1          0          0      )
                  (    -1         -1          0      )
                  (     0          0          1      )

 cart.    s(15) = (  1.0000000  0.0000000  0.0000000 )
                  (  0.0000000 -1.0000000  0.0000000 )
                  (  0.0000000  0.0000000  1.0000000 )


      isym = 16     inv. 180 deg rotation - cart. axis [1,0,0]   

 cryst.   s(16) = (    -1          0          0      )
                  (     1          1          0      )
                  (     0          0          1      )

 cart.    s(16) = ( -1.0000000  0.0000000  0.0000000 )
                  (  0.0000000  1.0000000  0.0000000 )
                  (  0.0000000  0.0000000  1.0000000 )


      isym = 17     inv.  60 deg rotation - cryst. axis [0,0,1]  

 cryst.   s(17) = (    -1         -1          0      )
                  (     1          0          0      )
                  (     0          0         -1      )

 cart.    s(17) = ( -0.5000000  0.8660254  0.0000000 )
                  ( -0.8660254 -0.5000000  0.0000000 )
                  (  0.0000000  0.0000000 -1.0000000 )


      isym = 18     inv.  60 deg rotation - cryst. axis [0,0,-1] 

 cryst.   s(18) = (     0          1          0      )
                  (    -1         -1          0      )
                  (     0          0         -1      )

 cart.    s(18) = ( -0.5000000 -0.8660254  0.0000000 )
                  (  0.8660254 -0.5000000  0.0000000 )
                  (  0.0000000  0.0000000 -1.0000000 )


      isym = 19     inv. 120 deg rotation - cryst. axis [0,0,1]  

 cryst.   s(19) = (     0         -1          0      )
                  (     1          1          0      )
                  (     0          0         -1      )

 cart.    s(19) = (  0.5000000  0.8660254  0.0000000 )
                  ( -0.8660254  0.5000000  0.0000000 )
                  (  0.0000000  0.0000000 -1.0000000 )


      isym = 20     inv. 120 deg rotation - cryst. axis [0,0,-1] 

 cryst.   s(20) = (     1          1          0      )
                  (    -1          0          0      )
                  (     0          0         -1      )

 cart.    s(20) = (  0.5000000 -0.8660254  0.0000000 )
                  (  0.8660254  0.5000000  0.0000000 )
                  (  0.0000000  0.0000000 -1.0000000 )


      isym = 21     inv. 180 deg rotation - cryst. axis [1,-1,0] 

 cryst.   s(21) = (     0          1          0      )
                  (     1          0          0      )
                  (     0          0          1      )

 cart.    s(21) = ( -0.5000000  0.8660254  0.0000000 )
                  (  0.8660254  0.5000000  0.0000000 )
                  (  0.0000000  0.0000000  1.0000000 )


      isym = 22     inv. 180 deg rotation - cryst. axis [2,1,0]  

 cryst.   s(22) = (    -1         -1          0      )
                  (     0          1          0      )
                  (     0          0          1      )

 cart.    s(22) = ( -0.5000000 -0.8660254  0.0000000 )
                  ( -0.8660254  0.5000000  0.0000000 )
                  (  0.0000000  0.0000000  1.0000000 )


      isym = 23     inv. 180 deg rotation - cryst. axis [0,1,0]  

 cryst.   s(23) = (     1          1          0      )
                  (     0         -1          0      )
                  (     0          0          1      )

 cart.    s(23) = (  0.5000000  0.8660254  0.0000000 )
                  (  0.8660254 -0.5000000  0.0000000 )
                  (  0.0000000  0.0000000  1.0000000 )


      isym = 24     inv. 180 deg rotation - cryst. axis [1,1,0]  

 cryst.   s(24) = (     0         -1          0      )
                  (    -1          0          0      )
                  (     0          0          1      )

 cart.    s(24) = (  0.5000000 -0.8660254  0.0000000 )
                  ( -0.8660254 -0.5000000  0.0000000 )
                  (  0.0000000  0.0000000  1.0000000 )


     point group D_6h(6/mmm)
     there are 12 classes
     the character table:

       E     2C6   2C3   C2    3C2'  3C2'' i     2S3   2S6   s_h   3s_d  3s_v 
A_1g   1.00  1.00  1.00  1.00  1.00  1.00  1.00  1.00  1.00  1.00  1.00  1.00
A_2g   1.00  1.00  1.00  1.00 -1.00 -1.00  1.00  1.00  1.00  1.00 -1.00 -1.00
B_1g   1.00 -1.00  1.00 -1.00  1.00 -1.00  1.00 -1.00  1.00 -1.00  1.00 -1.00
B_2g   1.00 -1.00  1.00 -1.00 -1.00  1.00  1.00 -1.00  1.00 -1.00 -1.00  1.00
E_1g   2.00  1.00 -1.00 -2.00  0.00  0.00  2.00  1.00 -1.00 -2.00  0.00  0.00
E_2g   2.00 -1.00 -1.00  2.00  0.00  0.00  2.00 -1.00 -1.00  2.00  0.00  0.00
A_1u   1.00  1.00  1.00  1.00  1.00  1.00 -1.00 -1.00 -1.00 -1.00 -1.00 -1.00
A_2u   1.00  1.00  1.00  1.00 -1.00 -1.00 -1.00 -1.00 -1.00 -1.00  1.00  1.00
B_1u   1.00 -1.00  1.00 -1.00  1.00 -1.00 -1.00  1.00 -1.00  1.00 -1.00  1.00
B_2u   1.00 -1.00  1.00 -1.00 -1.00  1.00 -1.00  1.00 -1.00  1.00  1.00 -1.00
E_1u   2.00  1.00 -1.00 -2.00  0.00  0.00 -2.00 -1.00  1.00  2.00  0.00  0.00
E_2u   2.00 -1.00 -1.00  2.00  0.00  0.00 -2.00  1.00  1.00 -2.00  0.00  0.00

     the symmetry operations in each class and the name of the first element:

     E        1
          identity                                               
     2C6      5    6
           60 deg rotation - cryst. axis [0,0,1]                 
     2C3      7    8
          120 deg rotation - cryst. axis [0,0,1]                 
     C2       2
          180 deg rotation - cart. axis [0,0,1]                  
     3C2'     4   12   11
          180 deg rotation - cart. axis [1,0,0]                  
     3C2''    3    9   10
          180 deg rotation - cart. axis [0,1,0]                  
     i       13
          inversion                                              
     2S3     17   18
          inv.  60 deg rotation - cryst. axis [0,0,1]            
     2S6     19   20
          inv. 120 deg rotation - cryst. axis [0,0,1]            
     s_h     14
          inv. 180 deg rotation - cart. axis [0,0,1]             
     3s_d    16   24   23
          inv. 180 deg rotation - cart. axis [1,0,0]             
     3s_v    15   21   22
          inv. 180 deg rotation - cart. axis [0,1,0]             

   Cartesian axes

     site n.     atom                  positions (alat units)
         1           C   tau(   1) = (   0.0000000   0.1924519   1.3510618  )
         2           C   tau(   2) = (   0.1666683   0.0962260   1.3510618  )
         3           C   tau(   3) = (   0.3333347   0.1924509   1.3510618  )
         4           C   tau(   4) = (   0.5000000   0.0962253   1.3510618  )
         5           C   tau(   5) = (   0.6666653   0.1924509   1.3510618  )
         6           C   tau(   6) = (   0.8333317   0.0962260   1.3510618  )
         7           C   tau(   7) = (  -0.1666664   0.4811253   1.3510618  )
         8           C   tau(   8) = (   0.0000000   0.3849018   1.3510618  )
         9           C   tau(   9) = (   0.1666664   0.4811253   1.3510618  )
        10           C   tau(  10) = (   0.3333336   0.3849001   1.3510618  )
        11           C   tau(  11) = (   0.5000000   0.4811236   1.3510618  )
        12           C   tau(  12) = (   0.6666664   0.3849001   1.3510618  )
        13           C   tau(  13) = (  -0.3333317   0.7697994   1.3510618  )
        14           C   tau(  14) = (  -0.1666653   0.6735745   1.3510618  )
        15           C   tau(  15) = (   0.0000000   0.7698001   1.3510618  )
        16           C   tau(  16) = (   0.1666653   0.6735745   1.3510618  )
        17           C   tau(  17) = (   0.3333317   0.7697994   1.3510618  )
        18           C   tau(  18) = (   0.5000000   0.6735735   1.3510618  )

   Crystallographic axes

     site n.     atom                  positions (cryst. coord.)
         1           C   tau(   1) = (  0.1111122  0.2222243  0.5000000  )
         2           C   tau(   2) = (  0.2222243  0.1111122  0.5000000  )
         3           C   tau(   3) = (  0.4444463  0.2222231  0.5000000  )
         4           C   tau(   4) = (  0.5555557  0.1111114  0.5000000  )
         5           C   tau(   5) = (  0.7777769  0.2222231  0.5000000  )
         6           C   tau(   6) = (  0.8888878  0.1111122  0.5000000  )
         7           C   tau(   7) = (  0.1111114  0.5555557  0.5000000  )
         8           C   tau(   8) = (  0.2222231  0.4444463  0.5000000  )
         9           C   tau(   9) = (  0.4444443  0.5555557  0.5000000  )
        10           C   tau(  10) = (  0.5555557  0.4444443  0.5000000  )
        11           C   tau(  11) = (  0.7777769  0.5555537  0.5000000  )
        12           C   tau(  12) = (  0.8888886  0.4444443  0.5000000  )
        13           C   tau(  13) = (  0.1111122  0.8888878  0.5000000  )
        14           C   tau(  14) = (  0.2222231  0.7777769  0.5000000  )
        15           C   tau(  15) = (  0.4444443  0.8888886  0.5000000  )
        16           C   tau(  16) = (  0.5555537  0.7777769  0.5000000  )
        17           C   tau(  17) = (  0.7777757  0.8888878  0.5000000  )
        18           C   tau(  18) = (  0.8888878  0.7777757  0.5000000  )

     number of k points=    19  Methfessel-Paxton smearing, width (Ry)=  0.0100
                       cart. coord. in units 2pi/alat
        k(    1) = (   0.0000000   0.0000000   0.0000000), wk =   0.0138889
        k(    2) = (   0.0000000   0.0962250   0.0000000), wk =   0.0833333
        k(    3) = (   0.0000000   0.1924501   0.0000000), wk =   0.0833333
        k(    4) = (   0.0000000   0.2886751   0.0000000), wk =   0.0833333
        k(    5) = (   0.0000000   0.3849002   0.0000000), wk =   0.0833333
        k(    6) = (   0.0000000   0.4811252   0.0000000), wk =   0.0833333
        k(    7) = (   0.0000000  -0.5773503   0.0000000), wk =   0.0416667
        k(    8) = (   0.0833333   0.1443376   0.0000000), wk =   0.0833333
        k(    9) = (   0.0833333   0.2405626   0.0000000), wk =   0.1666667
        k(   10) = (   0.0833333   0.3367877   0.0000000), wk =   0.1666667
        k(   11) = (   0.0833333   0.4330127   0.0000000), wk =   0.1666667
        k(   12) = (   0.0833333   0.5292377   0.0000000), wk =   0.1666667
        k(   13) = (   0.1666667   0.2886751   0.0000000), wk =   0.0833333
        k(   14) = (   0.1666667   0.3849002   0.0000000), wk =   0.1666667
        k(   15) = (   0.1666667   0.4811252   0.0000000), wk =   0.1666667
        k(   16) = (   0.1666667   0.5773503   0.0000000), wk =   0.0833333
        k(   17) = (   0.2500000   0.4330127   0.0000000), wk =   0.0833333
        k(   18) = (   0.2500000   0.5292377   0.0000000), wk =   0.1666667
        k(   19) = (   0.3333333   0.5773503   0.0000000), wk =   0.0277778

                       cryst. coord.
        k(    1) = (   0.0000000   0.0000000   0.0000000), wk =   0.0138889
        k(    2) = (   0.0000000   0.0833333   0.0000000), wk =   0.0833333
        k(    3) = (   0.0000000   0.1666667   0.0000000), wk =   0.0833333
        k(    4) = (   0.0000000   0.2500000   0.0000000), wk =   0.0833333
        k(    5) = (   0.0000000   0.3333333   0.0000000), wk =   0.0833333
        k(    6) = (   0.0000000   0.4166667   0.0000000), wk =   0.0833333
        k(    7) = (   0.0000000  -0.5000000   0.0000000), wk =   0.0416667
        k(    8) = (   0.0833333   0.0833333   0.0000000), wk =   0.0833333
        k(    9) = (   0.0833333   0.1666667   0.0000000), wk =   0.1666667
        k(   10) = (   0.0833333   0.2500000   0.0000000), wk =   0.1666667
        k(   11) = (   0.0833333   0.3333333   0.0000000), wk =   0.1666667
        k(   12) = (   0.0833333   0.4166667   0.0000000), wk =   0.1666667
        k(   13) = (   0.1666667   0.1666667   0.0000000), wk =   0.0833333
        k(   14) = (   0.1666667   0.2500000   0.0000000), wk =   0.1666667
        k(   15) = (   0.1666667   0.3333333   0.0000000), wk =   0.1666667
        k(   16) = (   0.1666667   0.4166667   0.0000000), wk =   0.0833333
        k(   17) = (   0.2500000   0.2500000   0.0000000), wk =   0.0833333
        k(   18) = (   0.2500000   0.3333333   0.0000000), wk =   0.1666667
        k(   19) = (   0.3333333   0.3333333   0.0000000), wk =   0.0277778

     Dense  grid:  1137251 G-vectors     FFT dimensions: ( 100, 100, 270)

     Smooth grid:   618881 G-vectors     FFT dimensions: (  80,  80, 216)

     Dynamical RAM for                 wfc:      12.69 MB

     Dynamical RAM for     wfc (w. buffer):      50.77 MB

     Dynamical RAM for           str. fact:       4.34 MB

     Dynamical RAM for           local pot:       0.00 MB

     Dynamical RAM for          nlocal pot:      42.50 MB

     Dynamical RAM for                qrad:       1.00 MB

     Dynamical RAM for          rho,v,vnew:      28.58 MB

     Dynamical RAM for               rhoin:       9.53 MB

     Dynamical RAM for            rho*nmix:      69.41 MB

     Dynamical RAM for           G-vectors:      17.45 MB

     Dynamical RAM for          h,s,v(r/c):       0.08 MB

     Dynamical RAM for          <psi|beta>:       0.09 MB

     Dynamical RAM for                 psi:      25.38 MB

     Dynamical RAM for                hpsi:      25.38 MB

     Dynamical RAM for                spsi:      25.38 MB

     Dynamical RAM for      wfcinit/wfcrot:      42.62 MB

     Dynamical RAM for           addusdens:      41.52 MB

     Dynamical RAM for          addusforce:      61.06 MB

     Dynamical RAM for         addusstress:      32.85 MB

     Estimated static dynamical RAM per process >     188.78 MB

     Estimated max dynamical RAM per process >     334.52 MB

     Estimated total dynamical RAM >       7.52 GB
 ----2D----2D----2D----2D----2D----2D----2D----2D----2D----2D----2D----2D
  The code is running with the 2D cutoff
  Please refer to:
  Sohier, T., Calandra, M., & Mauri, F. (2017), 
  Density functional perturbation theory for gated two-dimensional heterostructu
 res:
  Theoretical developments and application to flexural phonons in graphene.
  Physical Review B, 96(7), 75448. https://doi.org/10.1103/PhysRevB.96.075448
 ----2D----2D----2D----2D----2D----2D----2D----2D----2D----2D----2D----2D

     Initial potential from superposition of free atoms

     starting charge      71.9993, renormalised to      72.0000

     negative rho (up, down):  5.797E-04 0.000E+00
     Starting wfcs are   72 randomized atomic wfcs
     Checking if some PAW data can be deallocated... 

     total cpu time spent up to now is       32.1 secs

     Self-consistent Calculation

     iteration #  1     ecut=    80.00 Ry     beta= 0.70
     Davidson diagonalization with overlap

---- Real-time Memory Report at c_bands before calling an iterative solver
           373 MiB given to the printing process from OS
             0 MiB allocation reported by mallinfo(arena+hblkhd)
         48400 MiB available memory on the node where the printing process lives
------------------
     ethr =  1.00E-02,  avg # of iterations =  2.0

     negative rho (up, down):  7.717E-04 0.000E+00

     total cpu time spent up to now is       71.5 secs

     total energy              =    -331.80476803 Ry
     estimated scf accuracy    <       1.59257047 Ry

     iteration #  2     ecut=    80.00 Ry     beta= 0.70
     Davidson diagonalization with overlap

---- Real-time Memory Report at c_bands before calling an iterative solver
           462 MiB given to the printing process from OS
             0 MiB allocation reported by mallinfo(arena+hblkhd)
         47471 MiB available memory on the node where the printing process lives
------------------
     ethr =  2.21E-03,  avg # of iterations =  2.0

     negative rho (up, down):  9.147E-04 0.000E+00

     total cpu time spent up to now is      106.5 secs

     total energy              =    -331.98693197 Ry
     estimated scf accuracy    <       0.02212806 Ry

     iteration #  3     ecut=    80.00 Ry     beta= 0.70
     Davidson diagonalization with overlap

---- Real-time Memory Report at c_bands before calling an iterative solver
           522 MiB given to the printing process from OS
             0 MiB allocation reported by mallinfo(arena+hblkhd)
         47442 MiB available memory on the node where the printing process lives
------------------
     c_bands:  1 eigenvalues not converged
     ethr =  3.07E-05,  avg # of iterations = 12.9

     negative rho (up, down):  9.850E-04 0.000E+00

     total cpu time spent up to now is      155.8 secs

     total energy              =    -331.99201872 Ry
     estimated scf accuracy    <       0.00163052 Ry

     iteration #  4     ecut=    80.00 Ry     beta= 0.70
     Davidson diagonalization with overlap

---- Real-time Memory Report at c_bands before calling an iterative solver
           537 MiB given to the printing process from OS
             0 MiB allocation reported by mallinfo(arena+hblkhd)
         47509 MiB available memory on the node where the printing process lives
------------------
     ethr =  2.26E-06,  avg # of iterations = 10.1

     negative rho (up, down):  9.963E-04 0.000E+00

     total cpu time spent up to now is      201.1 secs

     total energy              =    -331.99236691 Ry
     estimated scf accuracy    <       0.00003797 Ry

     iteration #  5     ecut=    80.00 Ry     beta= 0.70
     Davidson diagonalization with overlap

---- Real-time Memory Report at c_bands before calling an iterative solver
           545 MiB given to the printing process from OS
             0 MiB allocation reported by mallinfo(arena+hblkhd)
         46807 MiB available memory on the node where the printing process lives
------------------
     ethr =  5.27E-08,  avg # of iterations =  6.0

     negative rho (up, down):  9.984E-04 0.000E+00

     total cpu time spent up to now is      249.9 secs

     total energy              =    -331.99239811 Ry
     estimated scf accuracy    <       0.00000162 Ry

     iteration #  6     ecut=    80.00 Ry     beta= 0.70
     Davidson diagonalization with overlap

---- Real-time Memory Report at c_bands before calling an iterative solver
           554 MiB given to the printing process from OS
             0 MiB allocation reported by mallinfo(arena+hblkhd)
         47448 MiB available memory on the node where the printing process lives
------------------
     ethr =  2.25E-09,  avg # of iterations =  3.8

     negative rho (up, down):  9.991E-04 0.000E+00

     total cpu time spent up to now is      289.6 secs

     total energy              =    -331.99239843 Ry
     estimated scf accuracy    <       0.00000053 Ry

     iteration #  7     ecut=    80.00 Ry     beta= 0.70
     Davidson diagonalization with overlap

---- Real-time Memory Report at c_bands before calling an iterative solver
           562 MiB given to the printing process from OS
             0 MiB allocation reported by mallinfo(arena+hblkhd)
         47384 MiB available memory on the node where the printing process lives
------------------
     ethr =  7.37E-10,  avg # of iterations =  2.1

     negative rho (up, down):  9.993E-04 0.000E+00

     total cpu time spent up to now is      325.5 secs

     total energy              =    -331.99239854 Ry
     estimated scf accuracy    <       0.00000002 Ry

     iteration #  8     ecut=    80.00 Ry     beta= 0.70
     Davidson diagonalization with overlap

---- Real-time Memory Report at c_bands before calling an iterative solver
           570 MiB given to the printing process from OS
             0 MiB allocation reported by mallinfo(arena+hblkhd)
         46734 MiB available memory on the node where the printing process lives
------------------
     ethr =  3.24E-11,  avg # of iterations =  5.2

     negative rho (up, down):  9.993E-04 0.000E+00

     total cpu time spent up to now is      368.9 secs

     total energy              =    -331.99239854 Ry
     estimated scf accuracy    <          4.0E-09 Ry

     iteration #  9     ecut=    80.00 Ry     beta= 0.70
     Davidson diagonalization with overlap

---- Real-time Memory Report at c_bands before calling an iterative solver
           578 MiB given to the printing process from OS
             0 MiB allocation reported by mallinfo(arena+hblkhd)
         46709 MiB available memory on the node where the printing process lives
------------------
     ethr =  5.58E-12,  avg # of iterations =  2.8

     negative rho (up, down):  9.993E-04 0.000E+00

     total cpu time spent up to now is      407.3 secs

     total energy              =    -331.99239854 Ry
     estimated scf accuracy    <          3.6E-10 Ry

     iteration # 10     ecut=    80.00 Ry     beta= 0.70
     Davidson diagonalization with overlap

---- Real-time Memory Report at c_bands before calling an iterative solver
           583 MiB given to the printing process from OS
             0 MiB allocation reported by mallinfo(arena+hblkhd)
         47331 MiB available memory on the node where the printing process lives
------------------
     ethr =  5.01E-13,  avg # of iterations =  3.2

     negative rho (up, down):  9.993E-04 0.000E+00

     total cpu time spent up to now is      442.7 secs

     total energy              =    -331.99239854 Ry
     estimated scf accuracy    <          3.0E-11 Ry

     iteration # 11     ecut=    80.00 Ry     beta= 0.70
     Davidson diagonalization with overlap

---- Real-time Memory Report at c_bands before calling an iterative solver
           586 MiB given to the printing process from OS
             0 MiB allocation reported by mallinfo(arena+hblkhd)
         47336 MiB available memory on the node where the printing process lives
------------------
     ethr =  1.00E-13,  avg # of iterations =  2.6

     negative rho (up, down):  9.993E-04 0.000E+00

     total cpu time spent up to now is      479.1 secs

     total energy              =    -331.99239854 Ry
     estimated scf accuracy    <          3.2E-12 Ry

     iteration # 12     ecut=    80.00 Ry     beta= 0.70
     Davidson diagonalization with overlap

---- Real-time Memory Report at c_bands before calling an iterative solver
           587 MiB given to the printing process from OS
             0 MiB allocation reported by mallinfo(arena+hblkhd)
         47323 MiB available memory on the node where the printing process lives
------------------
     ethr =  1.00E-13,  avg # of iterations =  1.0

     negative rho (up, down):  9.993E-04 0.000E+00

     total cpu time spent up to now is      509.1 secs

     total energy              =    -331.99239854 Ry
     estimated scf accuracy    <          8.5E-13 Ry

     iteration # 13     ecut=    80.00 Ry     beta= 0.70
     Davidson diagonalization with overlap

---- Real-time Memory Report at c_bands before calling an iterative solver
           589 MiB given to the printing process from OS
             0 MiB allocation reported by mallinfo(arena+hblkhd)
         47327 MiB available memory on the node where the printing process lives
------------------
     ethr =  1.00E-13,  avg # of iterations =  1.0

     negative rho (up, down):  9.993E-04 0.000E+00

     total cpu time spent up to now is      540.5 secs

     total energy              =    -331.99239854 Ry
     estimated scf accuracy    <          1.8E-13 Ry

     iteration # 14     ecut=    80.00 Ry     beta= 0.70
     Davidson diagonalization with overlap

---- Real-time Memory Report at c_bands before calling an iterative solver
           591 MiB given to the printing process from OS
             0 MiB allocation reported by mallinfo(arena+hblkhd)
         47318 MiB available memory on the node where the printing process lives
------------------
     ethr =  1.00E-13,  avg # of iterations =  1.0

     negative rho (up, down):  9.993E-04 0.000E+00

     total cpu time spent up to now is      570.5 secs

     total energy              =    -331.99239854 Ry
     estimated scf accuracy    <          1.4E-14 Ry

     iteration # 15     ecut=    80.00 Ry     beta= 0.70
     Davidson diagonalization with overlap

---- Real-time Memory Report at c_bands before calling an iterative solver
           593 MiB given to the printing process from OS
             0 MiB allocation reported by mallinfo(arena+hblkhd)
         47238 MiB available memory on the node where the printing process lives
------------------
     ethr =  1.00E-13,  avg # of iterations =  1.0

     negative rho (up, down):  9.993E-04 0.000E+00

     total cpu time spent up to now is      602.6 secs

     End of self-consistent calculation

          k = 0.0000 0.0000 0.0000 ( 77279 PWs)   bands (ev):

   -23.7625 -21.1828 -21.1827 -21.1827 -21.1826 -21.1826 -21.1825 -16.8517
   -16.8517 -16.8517 -16.8517 -14.8080 -14.8080 -13.8884 -13.8884 -13.8884
   -13.8883 -13.8883 -13.8883 -11.8587 -10.0424 -10.0424 -10.0424 -10.0423
   -10.0423 -10.0422  -8.8662  -8.8662  -8.8662  -8.8661  -8.8661  -8.8661
    -7.3006  -7.3006  -4.2448  -4.2448  -4.2448  -4.2448  -0.9939  -0.2442
     0.6591   0.6591   0.6592

     occupation numbers 
     1.0000   1.0000   1.0000   1.0000   1.0000   1.0000   1.0000   1.0000
     1.0000   1.0000   1.0000   1.0000   1.0000   1.0000   1.0000   1.0000
     1.0000   1.0000   1.0000   1.0000   1.0000   1.0000   1.0000   1.0000
     1.0000   1.0000   1.0000   1.0000   1.0000   1.0000   1.0000   1.0000
     1.0000   1.0000   0.5000   0.5000   0.5000   0.5000  -0.0000  -0.0000
    -0.0000  -0.0000  -0.0000

          k = 0.0000 0.0962 0.0000 ( 77281 PWs)   bands (ev):

   -23.7443 -21.5881 -21.3762 -21.3762 -20.9550 -20.9550 -20.7459 -17.2122
   -17.2122 -16.5749 -16.5749 -14.6879 -14.6879 -14.6076 -14.2427 -14.2427
   -13.5186 -13.5186 -13.1574 -11.8369 -10.2322 -10.2014 -10.2014  -9.9958
    -9.9958  -9.8230  -9.3175  -9.0795  -9.0795  -8.6168  -8.6168  -8.3944
    -7.3763  -7.3406  -4.6939  -4.6939  -3.8031  -3.8031  -0.9692  -0.2192
    -0.0930   0.2713   0.2713

     occupation numbers 
     1.0000   1.0000   1.0000   1.0000   1.0000   1.0000   1.0000   1.0000
     1.0000   1.0000   1.0000   1.0000   1.0000   1.0000   1.0000   1.0000
     1.0000   1.0000   1.0000   1.0000   1.0000   1.0000   1.0000   1.0000
     1.0000   1.0000   1.0000   1.0000   1.0000   1.0000   1.0000   1.0000
     1.0000   1.0000   1.0000   1.0000  -0.0000  -0.0000  -0.0000  -0.0000
    -0.0000  -0.0000  -0.0000

          k = 0.0000 0.1925 0.0000 ( 77343 PWs)   bands (ev):

   -23.6897 -21.9608 -21.5352 -21.5352 -20.6941 -20.6941 -20.2799 -17.6283
   -17.6283 -16.3729 -16.3729 -15.3093 -14.5770 -14.5770 -14.3657 -14.3657
   -13.1407 -13.1407 -12.4210 -11.7716 -10.4692 -10.4692 -10.3903 -10.0543
   -10.0543  -9.7411  -9.5774  -9.2555  -9.2555  -8.3330  -8.3330  -7.9142
    -7.5981  -7.4567  -5.1466  -5.1466  -3.3708  -3.3708  -0.8950  -0.8119
    -0.1440  -0.1258  -0.1258

     occupation numbers 
     1.0000   1.0000   1.0000   1.0000   1.0000   1.0000   1.0000   1.0000
     1.0000   1.0000   1.0000   1.0000   1.0000   1.0000   1.0000   1.0000
     1.0000   1.0000   1.0000   1.0000   1.0000   1.0000   1.0000   1.0000
     1.0000   1.0000   1.0000   1.0000   1.0000   1.0000   1.0000   1.0000
     1.0000   1.0000   1.0000   1.0000  -0.0000  -0.0000  -0.0000  -0.0000
    -0.0000  -0.0000  -0.0000

          k = 0.0000 0.2887 0.0000 ( 77358 PWs)   bands (ev):

   -23.5988 -22.2999 -21.6592 -21.6592 -20.4006 -20.4006 -19.7889 -18.0667
   -18.0667 -16.2065 -16.2065 -15.9865 -14.8877 -14.8877 -13.9165 -13.9165
   -12.7665 -12.7665 -11.6864 -11.6630 -10.8328 -10.8328 -10.5149 -10.1983
   -10.1983 -10.1320  -9.3934  -9.3934  -9.3094  -8.0166  -8.0166  -7.9512
    -7.6386  -7.4466  -5.5984  -5.5984  -2.9487  -2.9487  -1.4707  -0.7713
    -0.5264  -0.5264  -0.0186

     occupation numbers 
     1.0000   1.0000   1.0000   1.0000   1.0000   1.0000   1.0000   1.0000
     1.0000   1.0000   1.0000   1.0000   1.0000   1.0000   1.0000   1.0000
     1.0000   1.0000   1.0000   1.0000   1.0000   1.0000   1.0000   1.0000
     1.0000   1.0000   1.0000   1.0000   1.0000   1.0000   1.0000   1.0000
     1.0000   1.0000   1.0000   1.0000  -0.0000  -0.0000  -0.0000  -0.0000
    -0.0000  -0.0000  -0.0000

          k = 0.0000 0.3849 0.0000 ( 77362 PWs)   bands (ev):

   -23.4716 -22.6047 -21.7480 -21.7480 -20.0758 -20.0758 -19.2830 -18.5057
   -18.5057 -16.6267 -16.0425 -16.0425 -15.1725 -15.1725 -13.4003 -13.4003
   -12.4177 -12.4177 -11.5113 -11.2736 -11.2736 -10.9621 -10.6048 -10.4870
   -10.3944 -10.3944  -9.4924  -9.4924  -9.0242  -8.4153  -7.8717  -7.6699
    -7.6699  -7.0281  -6.0441  -6.0441  -2.5356  -2.5356  -2.0285  -0.9274
    -0.9274  -0.5981   0.1568

     occupation numbers 
     1.0000   1.0000   1.0000   1.0000   1.0000   1.0000   1.0000   1.0000
     1.0000   1.0000   1.0000   1.0000   1.0000   1.0000   1.0000   1.0000
     1.0000   1.0000   1.0000   1.0000   1.0000   1.0000   1.0000   1.0000
     1.0000   1.0000   1.0000   1.0000   1.0000   1.0000   1.0000   1.0000
     1.0000   1.0000   1.0000   1.0000  -0.0000  -0.0000  -0.0000  -0.0000
    -0.0000  -0.0000  -0.0000

          k = 0.0000 0.4811 0.0000 ( 77360 PWs)   bands (ev):

   -23.3084 -22.8746 -21.8014 -21.8014 -19.7212 -19.7212 -18.9323 -18.9323
   -18.7989 -17.1920 -15.8629 -15.8629 -15.4300 -15.4300 -12.8546 -12.8546
   -12.1404 -12.1404 -11.7710 -11.7710 -11.3171 -10.8039 -10.6591 -10.5855
   -10.5855 -10.2586  -9.5520  -9.5520  -8.9681  -8.7283  -8.1405  -7.2958
    -7.2958  -6.7207  -6.4788  -6.4788  -2.4205  -2.1296  -2.1296  -1.3277
    -1.3277  -0.3756   0.2177

     occupation numbers 
     1.0000   1.0000   1.0000   1.0000   1.0000   1.0000   1.0000   1.0000
     1.0000   1.0000   1.0000   1.0000   1.0000   1.0000   1.0000   1.0000
     1.0000   1.0000   1.0000   1.0000   1.0000   1.0000   1.0000   1.0000
     1.0000   1.0000   1.0000   1.0000   1.0000   1.0000   1.0000   1.0000
     1.0000   1.0000   1.0000   1.0000  -0.0000  -0.0000  -0.0000  -0.0000
    -0.0000  -0.0000  -0.0000

          k = 0.0000-0.5774 0.0000 ( 77350 PWs)   bands (ev):

   -23.1093 -23.1092 -21.8192 -21.8192 -19.3390 -19.3390 -19.3390 -19.3390
   -18.5300 -17.4881 -15.6599 -15.6599 -15.6598 -15.6598 -12.3046 -12.3046
   -12.3046 -12.3046 -12.0253 -12.0253 -11.0810 -11.0810 -10.6772 -10.6728
   -10.6728  -9.5887  -9.5887  -9.5719  -9.5719  -8.4303  -8.4303  -6.8975
    -6.8975  -6.8974  -6.8974  -6.6042  -2.5655  -1.7278  -1.7278  -1.7278
    -1.7277  -0.1036  -0.1036

     occupation numbers 
     1.0000   1.0000   1.0000   1.0000   1.0000   1.0000   1.0000   1.0000
     1.0000   1.0000   1.0000   1.0000   1.0000   1.0000   1.0000   1.0000
     1.0000   1.0000   1.0000   1.0000   1.0000   1.0000   1.0000   1.0000
     1.0000   1.0000   1.0000   1.0000   1.0000   1.0000   1.0000   1.0000
     1.0000   1.0000   1.0000   1.0000  -0.0000  -0.0000  -0.0000  -0.0000
    -0.0000  -0.0000  -0.0000

          k = 0.0833 0.1443 0.0000 ( 77342 PWs)   bands (ev):

   -23.7079 -21.7654 -21.7653 -21.1303 -21.1302 -20.5035 -20.5034 -17.6231
   -17.3626 -16.6283 -16.2505 -14.9527 -14.9527 -14.5258 -14.4153 -13.8639
   -13.8638 -12.7862 -12.7862 -11.7934 -10.3761 -10.3761 -10.2770 -10.2769
    -9.7620  -9.7620  -9.5176  -9.5175  -8.8046  -8.8046  -8.1390  -8.1389
    -7.5231  -7.4206  -5.0871  -4.9570  -3.5630  -3.4144  -0.9197  -0.4650
    -0.4650  -0.1690   0.6171

     occupation numbers 
     1.0000   1.0000   1.0000   1.0000   1.0000   1.0000   1.0000   1.0000
     1.0000   1.0000   1.0000   1.0000   1.0000   1.0000   1.0000   1.0000
     1.0000   1.0000   1.0000   1.0000   1.0000   1.0000   1.0000   1.0000
     1.0000   1.0000   1.0000   1.0000   1.0000   1.0000   1.0000   1.0000
     1.0000   1.0000   1.0000   1.0000  -0.0000  -0.0000  -0.0000  -0.0000
    -0.0000  -0.0000  -0.0000

          k = 0.0833 0.2406 0.0000 ( 77348 PWs)   bands (ev):

   -23.6351 -22.1212 -21.9075 -21.2710 -20.8509 -20.2288 -20.0245 -18.0844
   -17.6618 -16.6249 -15.9552 -15.6421 -15.2739 -14.2103 -14.1892 -13.9839
   -13.4797 -12.4144 -12.0525 -11.7064 -10.6535 -10.6290 -10.5180 -10.4413
    -9.9251  -9.8040  -9.6786  -9.5034  -8.9563  -8.4943  -7.8527  -7.8056
    -7.6616  -7.5746  -5.5529  -5.3097  -3.2525  -2.9564  -1.1562  -0.8371
    -0.8208  -0.0687   0.1924

     occupation numbers 
     1.0000   1.0000   1.0000   1.0000   1.0000   1.0000   1.0000   1.0000
     1.0000   1.0000   1.0000   1.0000   1.0000   1.0000   1.0000   1.0000
     1.0000   1.0000   1.0000   1.0000   1.0000   1.0000   1.0000   1.0000
     1.0000   1.0000   1.0000   1.0000   1.0000   1.0000   1.0000   1.0000
     1.0000   1.0000   1.0000   1.0000  -0.0000  -0.0000  -0.0000  -0.0000
    -0.0000  -0.0000  -0.0000

          k = 0.0833 0.3368 0.0000 ( 77405 PWs)   bands (ev):

   -23.5261 -22.4432 -22.0145 -21.3769 -20.5389 -19.9232 -19.5243 -18.5460
   -18.0406 -16.5525 -16.3022 -15.7092 -15.5681 -14.4921 -13.7744 -13.4792
   -13.1061 -12.0577 -11.5763 -11.3254 -11.1066 -10.9778 -10.6662 -10.6256
   -10.2983  -9.9268  -9.8000  -9.2244  -9.0709  -8.2080  -8.1505  -7.7884
    -7.5385  -7.2122  -6.0267  -5.6900  -2.9260  -2.4903  -1.7699  -1.2043
    -0.6723  -0.2403   0.0817

     occupation numbers 
     1.0000   1.0000   1.0000   1.0000   1.0000   1.0000   1.0000   1.0000
     1.0000   1.0000   1.0000   1.0000   1.0000   1.0000   1.0000   1.0000
     1.0000   1.0000   1.0000   1.0000   1.0000   1.0000   1.0000   1.0000
     1.0000   1.0000   1.0000   1.0000   1.0000   1.0000   1.0000   1.0000
     1.0000   1.0000   1.0000   1.0000  -0.0000  -0.0000  -0.0000  -0.0000
    -0.0000  -0.0000  -0.0000

          k = 0.0833 0.4330 0.0000 ( 77352 PWs)   bands (ev):

   -23.3809 -22.7305 -22.0859 -21.4476 -20.1955 -19.5883 -19.0210 -18.9937
   -18.4432 -16.9129 -16.4297 -15.8330 -15.4867 -14.7716 -13.2635 -12.9450
   -12.7745 -11.7468 -11.6154 -11.4041 -11.4033 -10.9071 -10.6979 -10.6344
   -10.6145 -10.0897  -9.8812  -9.1477  -8.9307  -8.7101  -8.0458  -7.7754
    -7.1994  -6.8394  -6.4926  -6.0782  -2.5942  -2.2542  -2.0279  -1.5638
    -0.6788  -0.4745   0.2821

     occupation numbers 
     1.0000   1.0000   1.0000   1.0000   1.0000   1.0000   1.0000   1.0000
     1.0000   1.0000   1.0000   1.0000   1.0000   1.0000   1.0000   1.0000
     1.0000   1.0000   1.0000   1.0000   1.0000   1.0000   1.0000   1.0000
     1.0000   1.0000   1.0000   1.0000   1.0000   1.0000   1.0000   1.0000
     1.0000   1.0000   1.0000   1.0000  -0.0000  -0.0000  -0.0000  -0.0000
    -0.0000  -0.0000  -0.0000

          k = 0.0833 0.5292 0.0000 ( 77378 PWs)   bands (ev):

   -23.1997 -22.9828 -22.1216 -21.4830 -19.8220 -19.4205 -19.2268 -18.8429
   -18.5980 -17.3900 -16.2661 -16.0663 -15.2642 -15.0280 -12.7156 -12.5556
   -12.4076 -12.1588 -11.8875 -11.5457 -11.1881 -11.0833 -10.9315 -10.7342
   -10.2194  -9.9317  -9.9219  -9.2912  -9.1863  -8.6298  -8.3309  -7.3717
    -6.9427  -6.8396  -6.6176  -6.4639  -2.5323  -2.2576  -1.9147  -1.5719
    -1.1224  -0.2271   0.0695

     occupation numbers 
     1.0000   1.0000   1.0000   1.0000   1.0000   1.0000   1.0000   1.0000
     1.0000   1.0000   1.0000   1.0000   1.0000   1.0000   1.0000   1.0000
     1.0000   1.0000   1.0000   1.0000   1.0000   1.0000   1.0000   1.0000
     1.0000   1.0000   1.0000   1.0000   1.0000   1.0000   1.0000   1.0000
     1.0000   1.0000   1.0000   1.0000  -0.0000  -0.0000  -0.0000  -0.0000
    -0.0000  -0.0000  -0.0000

          k = 0.1667 0.2887 0.0000 ( 77366 PWs)   bands (ev):

   -23.5442 -22.2464 -22.2463 -20.9734 -20.9733 -19.7387 -19.7386 -18.5599
   -17.7820 -16.8269 -15.9472 -15.9471 -15.5614 -13.9358 -13.8007 -13.8006
   -13.5050 -11.6928 -11.6928 -11.5979 -10.9040 -10.9038 -10.7548 -10.7547
   -10.0690 -10.0690  -9.5297  -9.5297  -8.6213  -8.6213  -8.1287  -7.7694
    -7.3844  -7.3843  -6.0215  -5.5457  -3.0825  -2.4733  -1.4906  -1.4906
    -0.6971   0.0566   0.4727

     occupation numbers 
     1.0000   1.0000   1.0000   1.0000   1.0000   1.0000   1.0000   1.0000
     1.0000   1.0000   1.0000   1.0000   1.0000   1.0000   1.0000   1.0000
     1.0000   1.0000   1.0000   1.0000   1.0000   1.0000   1.0000   1.0000
     1.0000   1.0000   1.0000   1.0000   1.0000   1.0000   1.0000   1.0000
     1.0000   1.0000   1.0000   1.0000  -0.0000  -0.0000  -0.0000  -0.0000
    -0.0000  -0.0000  -0.0000

          k = 0.1667 0.3849 0.0000 ( 77396 PWs)   bands (ev):

   -23.4172 -22.5508 -22.3358 -21.0611 -20.6431 -19.4249 -19.2339 -19.0250
   -18.0340 -16.8790 -16.5843 -16.2211 -15.2245 -14.1026 -13.5432 -13.4331
   -12.9897 -11.4465 -11.4203 -11.3632 -11.1847 -11.0875 -10.9851 -10.8454
   -10.4236 -10.1722  -9.6301  -9.2360  -8.7128  -8.5554  -8.2525  -8.0213
    -7.0869  -6.9644  -6.5007  -5.8274  -2.8774  -2.0455  -1.9715  -1.8096
    -0.5239   0.0020   0.2320

     occupation numbers 
     1.0000   1.0000   1.0000   1.0000   1.0000   1.0000   1.0000   1.0000
     1.0000   1.0000   1.0000   1.0000   1.0000   1.0000   1.0000   1.0000
     1.0000   1.0000   1.0000   1.0000   1.0000   1.0000   1.0000   1.0000
     1.0000   1.0000   1.0000   1.0000   1.0000   1.0000   1.0000   1.0000
     1.0000   1.0000   1.0000   1.0000  -0.0000  -0.0000  -0.0000  -0.0000
    -0.0000  -0.0000  -0.0000

          k = 0.1667 0.4811 0.0000 ( 77392 PWs)   bands (ev):

   -23.2540 -22.8206 -22.3896 -21.1139 -20.2814 -19.4698 -19.0867 -18.7511
   -18.3701 -17.1472 -16.8065 -16.4602 -14.9326 -14.3874 -13.1353 -13.0596
   -12.4691 -11.9680 -11.4978 -11.4354 -11.2525 -11.1065 -10.9000 -10.7400
   -10.3029 -10.2342  -9.7538  -9.0715  -8.9291  -8.7680  -8.3096  -7.8523
    -6.9714  -6.7748  -6.6552  -6.1352  -2.6451  -2.4369  -2.1097  -1.4681
    -0.4792  -0.3012   0.2921

     occupation numbers 
     1.0000   1.0000   1.0000   1.0000   1.0000   1.0000   1.0000   1.0000
     1.0000   1.0000   1.0000   1.0000   1.0000   1.0000   1.0000   1.0000
     1.0000   1.0000   1.0000   1.0000   1.0000   1.0000   1.0000   1.0000
     1.0000   1.0000   1.0000   1.0000   1.0000   1.0000   1.0000   1.0000
     1.0000   1.0000   1.0000   1.0000  -0.0000  -0.0000  -0.0000  -0.0000
    -0.0000  -0.0000  -0.0000

          k = 0.1667 0.5774 0.0000 ( 77400 PWs)   bands (ev):

   -23.0551 -23.0550 -22.4075 -21.1315 -19.8896 -19.8896 -18.7308 -18.7307
   -18.4832 -17.4418 -16.6588 -16.6587 -14.6603 -14.6602 -13.0094 -12.5234
   -12.5233 -11.9651 -11.9650 -11.5465 -11.0168 -11.0167 -11.0018 -10.9183
   -10.2549  -9.8150  -9.6597  -9.6597  -8.7864  -8.6168  -8.6168  -7.4239
    -7.4239  -6.5376  -6.4547  -6.4546  -2.5820  -2.3887  -2.3887  -0.9697
    -0.9696  -0.0292  -0.0292

     occupation numbers 
     1.0000   1.0000   1.0000   1.0000   1.0000   1.0000   1.0000   1.0000
     1.0000   1.0000   1.0000   1.0000   1.0000   1.0000   1.0000   1.0000
     1.0000   1.0000   1.0000   1.0000   1.0000   1.0000   1.0000   1.0000
     1.0000   1.0000   1.0000   1.0000   1.0000   1.0000   1.0000   1.0000
     1.0000   1.0000   1.0000   1.0000  -0.0000  -0.0000  -0.0000  -0.0000
    -0.0000  -0.0000  -0.0000

          k = 0.2500 0.4330 0.0000 ( 77382 PWs)   bands (ev):

   -23.2722 -22.6228 -22.6227 -20.7128 -20.7128 -19.4864 -18.9241 -18.9240
   -18.1089 -17.0904 -16.8262 -16.8262 -14.7877 -13.7515 -13.7514 -13.2092
   -12.4895 -11.7286 -11.7285 -11.2740 -11.1611 -11.1610 -10.6946 -10.6946
   -10.5073 -10.5073  -9.3125  -9.3125  -8.9851  -8.3212  -8.3212  -8.3153
    -6.9812  -6.7105  -6.7104  -6.0070  -2.7931  -2.2905  -2.2905  -1.4316
    -0.3259   0.1799   0.1800

     occupation numbers 
     1.0000   1.0000   1.0000   1.0000   1.0000   1.0000   1.0000   1.0000
     1.0000   1.0000   1.0000   1.0000   1.0000   1.0000   1.0000   1.0000
     1.0000   1.0000   1.0000   1.0000   1.0000   1.0000   1.0000   1.0000
     1.0000   1.0000   1.0000   1.0000   1.0000   1.0000   1.0000   1.0000
     1.0000   1.0000   1.0000   1.0000  -0.0000  -0.0000  -0.0000  -0.0000
    -0.0000  -0.0000  -0.0000

          k = 0.2500 0.5292 0.0000 ( 77421 PWs)   bands (ev):

   -23.0912 -22.8747 -22.6587 -20.7477 -20.3331 -19.9236 -18.6078 -18.5037
   -18.3154 -17.2990 -17.1228 -17.0153 -14.4082 -14.0706 -13.5151 -12.7756
   -12.2699 -12.0039 -11.9458 -11.5541 -11.1979 -11.0594 -10.8035 -10.5492
   -10.5107 -10.0658  -9.4916  -9.3913  -8.9801  -8.6426  -8.3558  -7.8991
    -7.4505  -6.4851  -6.4591  -6.2210  -2.6675  -2.5686  -2.4992  -0.8878
    -0.3489  -0.0784   0.2747

     occupation numbers 
     1.0000   1.0000   1.0000   1.0000   1.0000   1.0000   1.0000   1.0000
     1.0000   1.0000   1.0000   1.0000   1.0000   1.0000   1.0000   1.0000
     1.0000   1.0000   1.0000   1.0000   1.0000   1.0000   1.0000   1.0000
     1.0000   1.0000   1.0000   1.0000   1.0000   1.0000   1.0000   1.0000
     1.0000   1.0000   1.0000   1.0000  -0.0000  -0.0000  -0.0000  -0.0000
    -0.0000  -0.0000  -0.0000

          k = 0.3333 0.5774 0.0000 ( 77382 PWs)   bands (ev):

   -22.8927 -22.8927 -22.8926 -20.3504 -20.3504 -20.3504 -18.3428 -18.3427
   -18.3427 -17.3058 -17.3058 -17.3057 -13.9344 -13.9343 -13.9343 -12.4020
   -12.4020 -12.4019 -11.5729 -11.5729 -11.5729 -10.8248 -10.8248 -10.8246
    -9.9709  -9.9709  -9.9709  -9.0136  -9.0135  -9.0135  -7.9148  -7.9148
    -7.9148  -6.3383  -6.3382  -6.3382  -2.6450  -2.6450  -2.6450  -0.3036
    -0.3036  -0.3036   0.1936

     occupation numbers 
     1.0000   1.0000   1.0000   1.0000   1.0000   1.0000   1.0000   1.0000
     1.0000   1.0000   1.0000   1.0000   1.0000   1.0000   1.0000   1.0000
     1.0000   1.0000   1.0000   1.0000   1.0000   1.0000   1.0000   1.0000
     1.0000   1.0000   1.0000   1.0000   1.0000   1.0000   1.0000   1.0000
     1.0000   1.0000   1.0000   1.0000  -0.0000  -0.0000  -0.0000  -0.0000
    -0.0000  -0.0000  -0.0000

     the Fermi energy is    -4.2448 ev

!    total energy              =    -331.99239854 Ry

     total all-electron energy =     -1371.746160 Ry
     estimated scf accuracy    <          6.9E-15 Ry
     smearing contrib. (-TS)   =      -0.00007814 Ry
     internal energy E=F+TS    =    -331.99232040 Ry

     The total energy is F=E-TS. E is the sum of the following terms:
     one-electron contribution =   -3212.79158029 Ry
     hartree contribution      =    1614.28626313 Ry
     xc contribution           =     -83.44691638 Ry
     ewald contribution        =    1460.96548207 Ry
     one-center paw contrib.   =    -111.00556892 Ry
      -> PAW hartree energy AE =       9.39906187 Ry
      -> PAW hartree energy PS =      -9.39041700 Ry
      -> PAW xc energy AE      =     -10.65248429 Ry
      -> PAW xc energy PS      =       4.47686387 Ry
      -> total E_H with PAW    =    1614.29490801 Ry
      -> total E_XC with PAW   =     -89.62253680 Ry

     convergence has been achieved in  15 iterations

     negative rho (up, down):  9.993E-04 0.000E+00

     Forces acting on atoms (cartesian axes, Ry/au):

     atom    1 type  1   force =     0.00000000   -0.00000031    0.00000000
     atom    2 type  1   force =    -0.00000026   -0.00000015    0.00000000
     atom    3 type  1   force =    -0.00000005   -0.00000003   -0.00000000
     atom    4 type  1   force =     0.00000000   -0.00000026   -0.00000000
     atom    5 type  1   force =     0.00000005   -0.00000003    0.00000000
     atom    6 type  1   force =     0.00000026   -0.00000015    0.00000000
     atom    7 type  1   force =    -0.00000023   -0.00000013   -0.00000000
     atom    8 type  1   force =     0.00000000   -0.00000006   -0.00000000
     atom    9 type  1   force =     0.00000023   -0.00000013    0.00000000
     atom   10 type  1   force =    -0.00000023    0.00000013    0.00000000
     atom   11 type  1   force =     0.00000000    0.00000006    0.00000000
     atom   12 type  1   force =     0.00000023    0.00000013    0.00000000
     atom   13 type  1   force =    -0.00000026    0.00000015   -0.00000000
     atom   14 type  1   force =    -0.00000005    0.00000003    0.00000000
     atom   15 type  1   force =    -0.00000000    0.00000026    0.00000000
     atom   16 type  1   force =     0.00000005    0.00000003    0.00000000
     atom   17 type  1   force =     0.00000026    0.00000015    0.00000000
     atom   18 type  1   force =     0.00000000    0.00000031   -0.00000000
     The non-local contrib.  to forces
     atom    1 type  1   force =     0.00000000   -0.00002307    0.00000000
     atom    2 type  1   force =    -0.00001998   -0.00001154   -0.00000000
     atom    3 type  1   force =    -0.00001260   -0.00000727   -0.00000000
     atom    4 type  1   force =     0.00000000   -0.00000876    0.00000000
     atom    5 type  1   force =     0.00001260   -0.00000727    0.00000000
     atom    6 type  1   force =     0.00001998   -0.00001154   -0.00000000
     atom    7 type  1   force =    -0.00000758   -0.00000438    0.00000000
     atom    8 type  1   force =     0.00000000   -0.00001455    0.00000000
     atom    9 type  1   force =     0.00000758   -0.00000438    0.00000000
     atom   10 type  1   force =    -0.00000758    0.00000438    0.00000000
     atom   11 type  1   force =     0.00000000    0.00001455    0.00000000
     atom   12 type  1   force =     0.00000758    0.00000438    0.00000000
     atom   13 type  1   force =    -0.00001998    0.00001154    0.00000000
     atom   14 type  1   force =    -0.00001260    0.00000727    0.00000000
     atom   15 type  1   force =     0.00000000    0.00000876    0.00000000
     atom   16 type  1   force =     0.00001260    0.00000727    0.00000000
     atom   17 type  1   force =     0.00001998    0.00001154   -0.00000000
     atom   18 type  1   force =     0.00000000    0.00002307   -0.00000000
     The ionic contribution  to forces
     atom    1 type  1   force =    -0.00000001   -0.00023052   -0.00000000
     atom    2 type  1   force =    -0.00019963   -0.00011527   -0.00000000
     atom    3 type  1   force =    -0.00009165   -0.00005292   -0.00000000
     atom    4 type  1   force =     0.00000000   -0.00012531   -0.00000000
     atom    5 type  1   force =     0.00009165   -0.00005291   -0.00000000
     atom    6 type  1   force =     0.00019964   -0.00011526   -0.00000000
     atom    7 type  1   force =    -0.00010852   -0.00006265   -0.00000000
     atom    8 type  1   force =     0.00000000   -0.00010583   -0.00000000
     atom    9 type  1   force =     0.00010851   -0.00006265   -0.00000000
     atom   10 type  1   force =    -0.00010851    0.00006265   -0.00000000
     atom   11 type  1   force =    -0.00000000    0.00010583   -0.00000000
     atom   12 type  1   force =     0.00010852    0.00006265   -0.00000000
     atom   13 type  1   force =    -0.00019964    0.00011526   -0.00000000
     atom   14 type  1   force =    -0.00009165    0.00005291   -0.00000000
     atom   15 type  1   force =    -0.00000000    0.00012531   -0.00000000
     atom   16 type  1   force =     0.00009165    0.00005292   -0.00000000
     atom   17 type  1   force =     0.00019963    0.00011527   -0.00000000
     atom   18 type  1   force =     0.00000001    0.00023052   -0.00000000
     The local contribution  to forces
     atom    1 type  1   force =    -0.00000000    0.00022285    0.00000000
     atom    2 type  1   force =     0.00019299    0.00011142    0.00000000
     atom    3 type  1   force =     0.00008664    0.00005002    0.00000000
     atom    4 type  1   force =     0.00000000    0.00012346    0.00000000
     atom    5 type  1   force =    -0.00008664    0.00005002    0.00000000
     atom    6 type  1   force =    -0.00019299    0.00011142    0.00000000
     atom    7 type  1   force =     0.00010692    0.00006173    0.00000000
     atom    8 type  1   force =     0.00000000    0.00010005    0.00000000
     atom    9 type  1   force =    -0.00010692    0.00006173    0.00000000
     atom   10 type  1   force =     0.00010692   -0.00006173    0.00000000
     atom   11 type  1   force =    -0.00000000   -0.00010005    0.00000000
     atom   12 type  1   force =    -0.00010692   -0.00006173    0.00000000
     atom   13 type  1   force =     0.00019299   -0.00011142    0.00000000
     atom   14 type  1   force =     0.00008664   -0.00005002    0.00000000
     atom   15 type  1   force =    -0.00000000   -0.00012346    0.00000000
     atom   16 type  1   force =    -0.00008664   -0.00005002    0.00000000
     atom   17 type  1   force =    -0.00019299   -0.00011142    0.00000000
     atom   18 type  1   force =     0.00000000   -0.00022285    0.00000000
     The core correction contribution to forces
     atom    1 type  1   force =     0.00000000    0.00003040    0.00000000
     atom    2 type  1   force =     0.00002633    0.00001520    0.00000000
     atom    3 type  1   force =     0.00001756    0.00001014    0.00000000
     atom    4 type  1   force =    -0.00000000    0.00001031    0.00000000
     atom    5 type  1   force =    -0.00001756    0.00001014    0.00000000
     atom    6 type  1   force =    -0.00002633    0.00001520    0.00000000
     atom    7 type  1   force =     0.00000893    0.00000515    0.00000000
     atom    8 type  1   force =     0.00000000    0.00002027    0.00000000
     atom    9 type  1   force =    -0.00000893    0.00000515    0.00000000
     atom   10 type  1   force =     0.00000893   -0.00000515    0.00000000
     atom   11 type  1   force =    -0.00000000   -0.00002027    0.00000000
     atom   12 type  1   force =    -0.00000893   -0.00000515    0.00000000
     atom   13 type  1   force =     0.00002633   -0.00001520    0.00000000
     atom   14 type  1   force =     0.00001756   -0.00001014   -0.00000000
     atom   15 type  1   force =     0.00000000   -0.00001031    0.00000000
     atom   16 type  1   force =    -0.00001756   -0.00001014    0.00000000
     atom   17 type  1   force =    -0.00002633   -0.00001520    0.00000000
     atom   18 type  1   force =    -0.00000000   -0.00003040    0.00000000
     The Hubbard contrib.    to forces
     atom    1 type  1   force =     0.00000000    0.00000000    0.00000000
     atom    2 type  1   force =     0.00000000    0.00000000    0.00000000
     atom    3 type  1   force =     0.00000000    0.00000000    0.00000000
     atom    4 type  1   force =     0.00000000    0.00000000    0.00000000
     atom    5 type  1   force =     0.00000000    0.00000000    0.00000000
     atom    6 type  1   force =     0.00000000    0.00000000    0.00000000
     atom    7 type  1   force =     0.00000000    0.00000000    0.00000000
     atom    8 type  1   force =     0.00000000    0.00000000    0.00000000
     atom    9 type  1   force =     0.00000000    0.00000000    0.00000000
     atom   10 type  1   force =     0.00000000    0.00000000    0.00000000
     atom   11 type  1   force =     0.00000000    0.00000000    0.00000000
     atom   12 type  1   force =     0.00000000    0.00000000    0.00000000
     atom   13 type  1   force =     0.00000000    0.00000000    0.00000000
     atom   14 type  1   force =     0.00000000    0.00000000    0.00000000
     atom   15 type  1   force =     0.00000000    0.00000000    0.00000000
     atom   16 type  1   force =     0.00000000    0.00000000    0.00000000
     atom   17 type  1   force =     0.00000000    0.00000000    0.00000000
     atom   18 type  1   force =     0.00000000    0.00000000    0.00000000
     The SCF correction term to forces
     atom    1 type  1   force =    -0.00000000    0.00000004   -0.00000000
     atom    2 type  1   force =     0.00000003    0.00000002   -0.00000000
     atom    3 type  1   force =     0.00000000    0.00000000   -0.00000000
     atom    4 type  1   force =     0.00000000    0.00000003   -0.00000000
     atom    5 type  1   force =    -0.00000000    0.00000000   -0.00000000
     atom    6 type  1   force =    -0.00000003    0.00000002   -0.00000000
     atom    7 type  1   force =     0.00000003    0.00000002   -0.00000000
     atom    8 type  1   force =     0.00000000    0.00000000   -0.00000000
     atom    9 type  1   force =    -0.00000003    0.00000002   -0.00000000
     atom   10 type  1   force =     0.00000003   -0.00000002   -0.00000000
     atom   11 type  1   force =     0.00000000   -0.00000000   -0.00000000
     atom   12 type  1   force =    -0.00000003   -0.00000002   -0.00000000
     atom   13 type  1   force =     0.00000003   -0.00000002   -0.00000000
     atom   14 type  1   force =     0.00000000   -0.00000000   -0.00000000
     atom   15 type  1   force =     0.00000000   -0.00000003   -0.00000000
     atom   16 type  1   force =    -0.00000000   -0.00000000   -0.00000000
     atom   17 type  1   force =    -0.00000003   -0.00000002   -0.00000000
     atom   18 type  1   force =    -0.00000000   -0.00000004   -0.00000000

     Total force =     0.000001     Total SCF correction =     0.000000
     SCF correction compared to forces is large: reduce conv_thr to get better values


     Computing stress (Cartesian axis) and pressure


     negative rho (up, down):  9.993E-04 0.000E+00
          total   stress  (Ry/bohr**3)                   (kbar)     P=       -0.02
   0.00000001   0.00000000   0.00000000            0.00        0.00        0.00
   0.00000000   0.00000001  -0.00000000            0.00        0.00       -0.00
  -0.00000000   0.00000000  -0.00000034           -0.00        0.00       -0.05

     kinetic stress (kbar)   1933.95     -0.00     -0.00
                               -0.00   1933.95     -0.00
                               -0.00     -0.00   2195.95

     local   stress (kbar) -76483.12      0.00     -0.00
                                0.00 -76483.12     -0.00
                               -0.00     -0.00  76343.05

     nonloc. stress (kbar)    490.64     -0.00      0.00
                               -0.00    490.64      0.00
                                0.00      0.00    447.81

     hartree stress (kbar)  36913.02      0.00     -0.00
                                0.00  36913.02      0.00
                               -0.00      0.00 -36740.77

     exc-cor stress (kbar)    -34.59     -0.00      0.00
                               -0.00    -34.59      0.00
                                0.00      0.00    -56.59

     corecor stress (kbar)   -466.81      0.00     -0.00
                                0.00   -466.81     -0.00
                               -0.00     -0.00   -458.69

     ewald   stress (kbar)  37646.90     -0.00     -0.00
                               -0.00  37646.90     -0.00
                               -0.00     -0.00 -41730.80

     hubbard stress (kbar)      0.00      0.00      0.00
                                0.00      0.00      0.00
                                0.00      0.00      0.00

     DFT-D   stress (kbar)      0.00      0.00      0.00
                                0.00      0.00      0.00
                                0.00      0.00      0.00

     XDM     stress (kbar)      0.00      0.00      0.00
                                0.00      0.00      0.00
                                0.00      0.00      0.00

     dft-nl  stress (kbar)      0.00      0.00      0.00
                                0.00      0.00      0.00
                                0.00      0.00      0.00

     TS-vdW  stress (kbar)      0.00      0.00      0.00
                                0.00      0.00      0.00
                                0.00      0.00      0.00


                                0.00      0.00      0.00
                                0.00      0.00      0.00


                                0.00      0.00      0.00


     BFGS Geometry Optimization
     Energy error            =      0.0E+00 Ry
     Gradient error          =      3.1E-07 Ry/Bohr
     Cell gradient error     =      8.5E-04 kbar
ibrav =      4
 celldm(1) =     13.98696992
 celldm(3) =      2.70212367
Input lattice vectors:
     1.00000000     0.00000000     0.00000000
    -0.50000000     0.86602540     0.00000000
     0.00000000     0.00000000     2.70212367
New lattice vectors in INITIAL alat:
     1.00000000     0.00000000     0.00000000
    -0.50000000     0.86602540     0.00000000
     0.00000000     0.00000000     2.70212367
New lattice vectors in NEW alat (for information only):
     1.00000000     0.00000000     0.00000000
    -0.50000000     0.86602540     0.00000000
     0.00000000     0.00000000     2.70212367
Discrepancy in bohr =     0.000000    0.000000    0.000000

     bfgs converged in   1 scf cycles and   0 bfgs steps
     (criteria: energy <  1.0E-07 Ry, force <  1.0E-06Ry/Bohr, cell <  1.0E-02kbar)

     End of BFGS Geometry Optimization

     Final enthalpy           =    -331.9923985449 Ry
Begin final coordinates
     new unit-cell volume =   6403.34315 a.u.^3 (   948.87756 Ang^3 )
     density =      0.37834 g/cm^3

CELL_PARAMETERS (alat= 13.98696992)
   1.000000000   0.000000000   0.000000000
  -0.500000000   0.866025404   0.000000000
   0.000000000   0.000000000   2.702123670

ATOMIC_POSITIONS (crystal)
C             0.1111121709        0.2222243417        0.5000000000
C             0.2222243417        0.1111121709        0.5000000000
C             0.4444462778        0.2222231389        0.5000000000
C             0.5555557005        0.1111114011        0.5000000000
C             0.7777768611        0.2222231389        0.5000000000
C             0.8888878291        0.1111121709        0.5000000000
C             0.1111114011        0.5555557005        0.5000000000
C             0.2222231389        0.4444462778        0.5000000000
C             0.4444442995        0.5555557005        0.5000000000
C             0.5555557005        0.4444442995        0.5000000000
C             0.7777768611        0.5555537222        0.5000000000
C             0.8888885989        0.4444442995        0.5000000000
C             0.1111121709        0.8888878291        0.5000000000
C             0.2222231389        0.7777768611        0.5000000000
C             0.4444442995        0.8888885989        0.5000000000
C             0.5555537222        0.7777768611        0.5000000000
C             0.7777756583        0.8888878291        0.5000000000
C             0.8888878291        0.7777756583        0.5000000000
End final coordinates



     Writing config-only to output data dir ./outdir/graphene.save/

     Final scf calculation at the relaxed structure.
     The G-vectors are recalculated for the final unit cell
     Results may differ from those at the preceding step.
 
     Parallelization info
     --------------------
     sticks:   dense  smooth     PW     G-vecs:    dense   smooth      PW
     Min        1616    1075    289               284310   154713   21365
     Max        1618    1076    290               284314   154726   21372
     Sum        6469    4303   1159              1137251   618881   85473
 
     Using Slab Decomposition
 


     bravais-lattice index     =            4
     lattice parameter (alat)  =      13.9870  a.u.
     unit-cell volume          =    6403.3432 (a.u.)^3
     number of atoms/cell      =           18
     number of atomic types    =            1
     number of electrons       =        72.00
     number of Kohn-Sham states=           43
     kinetic-energy cutoff     =      80.0000  Ry
     charge density cutoff     =     480.0000  Ry
     scf convergence threshold =      1.0E-14
     mixing beta               =       0.7000
     number of iterations used =            8  plain     mixing
     press convergence thresh. =      1.0E-02
     Exchange-correlation= SLA  PW   PBX  PBC
                           (   1   4   3   4   0   0   0)

     celldm(1)=  13.986970  celldm(2)=   0.000000  celldm(3)=   2.702124
     celldm(4)=   0.000000  celldm(5)=   0.000000  celldm(6)=   0.000000

     crystal axes: (cart. coord. in units of alat)
               a(1) = (   1.000000   0.000000   0.000000 )  
               a(2) = (  -0.500000   0.866025   0.000000 )  
               a(3) = (   0.000000   0.000000   2.702124 )  

     reciprocal axes: (cart. coord. in units 2 pi/alat)
               b(1) = (  1.000000  0.577350  0.000000 )  
               b(2) = (  0.000000  1.154701  0.000000 )  
               b(3) = (  0.000000  0.000000  0.370079 )  

Write cell and positions for Wanner90.x
begin unit_cell_cart
Bohr
       13.9869699   0.0000000   0.0000000
       -6.9934850  12.1130713   0.0000000
        0.0000000   0.0000000  37.7945225
end unit_cell_cart

begin atoms_cart
Bohr
        C           0.0000000   2.6918193  18.8972612
        C           2.3311839   1.3459096  18.8972612
        C           4.6623425   2.6918047  18.8972612
        C           6.9934850   1.3459003  18.8972612
        C           9.3246274   2.6918047  18.8972612
        C          11.6557860   1.3459096  18.8972612
        C          -2.3311586   6.7294858  18.8972612
        C           0.0000000   5.3836094  18.8972612
        C           2.3311586   6.7294858  18.8972612
        C           4.6623263   5.3835855  18.8972612
        C           6.9934850   6.7294618  18.8972612
        C           9.3246436   5.3835855  18.8972612
        C          -4.6623011  10.7671616  18.8972612
        C          -2.3311424   9.4212666  18.8972612
        C           0.0000000  10.7671710  18.8972612
        C           2.3311424   9.4212666  18.8972612
        C           4.6623011  10.7671616  18.8972612
        C           6.9934850   9.4212520  18.8972612
end atoms_cart

     PseudoPot. # 1 for C  read from file:
     ./pseudo/C.pbe-n-kjpaw_psl.1.0.0.UPF
     MD5 check sum: 6fec8efd722f5d988670a8dc528584a2
     Pseudo is Projector augmented-wave + core cor, Zval =  4.0
     Generated using "atomic" code by A. Dal Corso  v.5.1.2
     Shape of augmentation charge: PSQ
     Using radial grid of 1073 points,  4 beta functions with: 
                l(1) =   0
                l(2) =   0
                l(3) =   1
                l(4) =   1
     Q(r) pseudized with 0 coefficients 


     atomic species   valence    mass     pseudopotential
        C              4.00    12.01070     C ( 1.00)

     24 Sym. Ops., with inversion, found


                                    s                        frac. trans.

      isym =  1     identity                                     

 cryst.   s( 1) = (     1          0          0      )
                  (     0          1          0      )
                  (     0          0          1      )

 cart.    s( 1) = (  1.0000000  0.0000000  0.0000000 )
                  (  0.0000000  1.0000000  0.0000000 )
                  (  0.0000000  0.0000000  1.0000000 )


      isym =  2     180 deg rotation - cart. axis [0,0,1]        

 cryst.   s( 2) = (    -1          0          0      )
                  (     0         -1          0      )
                  (     0          0          1      )

 cart.    s( 2) = ( -1.0000000  0.0000000  0.0000000 )
                  (  0.0000000 -1.0000000  0.0000000 )
                  (  0.0000000  0.0000000  1.0000000 )


      isym =  3     180 deg rotation - cart. axis [0,1,0]        

 cryst.   s( 3) = (    -1          0          0      )
                  (     1          1          0      )
                  (     0          0         -1      )

 cart.    s( 3) = ( -1.0000000  0.0000000  0.0000000 )
                  (  0.0000000  1.0000000  0.0000000 )
                  (  0.0000000  0.0000000 -1.0000000 )


      isym =  4     180 deg rotation - cart. axis [1,0,0]        

 cryst.   s( 4) = (     1          0          0      )
                  (    -1         -1          0      )
                  (     0          0         -1      )

 cart.    s( 4) = (  1.0000000  0.0000000  0.0000000 )
                  (  0.0000000 -1.0000000  0.0000000 )
                  (  0.0000000  0.0000000 -1.0000000 )


      isym =  5      60 deg rotation - cryst. axis [0,0,1]       

 cryst.   s( 5) = (     1          1          0      )
                  (    -1          0          0      )
                  (     0          0          1      )

 cart.    s( 5) = (  0.5000000 -0.8660254  0.0000000 )
                  (  0.8660254  0.5000000  0.0000000 )
                  (  0.0000000  0.0000000  1.0000000 )


      isym =  6      60 deg rotation - cryst. axis [0,0,-1]      

 cryst.   s( 6) = (     0         -1          0      )
                  (     1          1          0      )
                  (     0          0          1      )

 cart.    s( 6) = (  0.5000000  0.8660254  0.0000000 )
                  ( -0.8660254  0.5000000  0.0000000 )
                  (  0.0000000  0.0000000  1.0000000 )


      isym =  7     120 deg rotation - cryst. axis [0,0,1]       

 cryst.   s( 7) = (     0          1          0      )
                  (    -1         -1          0      )
                  (     0          0          1      )

 cart.    s( 7) = ( -0.5000000 -0.8660254  0.0000000 )
                  (  0.8660254 -0.5000000  0.0000000 )
                  (  0.0000000  0.0000000  1.0000000 )


      isym =  8     120 deg rotation - cryst. axis [0,0,-1]      

 cryst.   s( 8) = (    -1         -1          0      )
                  (     1          0          0      )
                  (     0          0          1      )

 cart.    s( 8) = ( -0.5000000  0.8660254  0.0000000 )
                  ( -0.8660254 -0.5000000  0.0000000 )
                  (  0.0000000  0.0000000  1.0000000 )


      isym =  9     180 deg rotation - cryst. axis [1,-1,0]      

 cryst.   s( 9) = (     0         -1          0      )
                  (    -1          0          0      )
                  (     0          0         -1      )

 cart.    s( 9) = (  0.5000000 -0.8660254  0.0000000 )
                  ( -0.8660254 -0.5000000  0.0000000 )
                  (  0.0000000  0.0000000 -1.0000000 )


      isym = 10     180 deg rotation - cryst. axis [2,1,0]       

 cryst.   s(10) = (     1          1          0      )
                  (     0         -1          0      )
                  (     0          0         -1      )

 cart.    s(10) = (  0.5000000  0.8660254  0.0000000 )
                  (  0.8660254 -0.5000000  0.0000000 )
                  (  0.0000000  0.0000000 -1.0000000 )


      isym = 11     180 deg rotation - cryst. axis [0,1,0]       

 cryst.   s(11) = (    -1         -1          0      )
                  (     0          1          0      )
                  (     0          0         -1      )

 cart.    s(11) = ( -0.5000000 -0.8660254  0.0000000 )
                  ( -0.8660254  0.5000000  0.0000000 )
                  (  0.0000000  0.0000000 -1.0000000 )


      isym = 12     180 deg rotation - cryst. axis [1,1,0]       

 cryst.   s(12) = (     0          1          0      )
                  (     1          0          0      )
                  (     0          0         -1      )

 cart.    s(12) = ( -0.5000000  0.8660254  0.0000000 )
                  (  0.8660254  0.5000000  0.0000000 )
                  (  0.0000000  0.0000000 -1.0000000 )


      isym = 13     inversion                                    

 cryst.   s(13) = (    -1          0          0      )
                  (     0         -1          0      )
                  (     0          0         -1      )

 cart.    s(13) = ( -1.0000000  0.0000000  0.0000000 )
                  (  0.0000000 -1.0000000  0.0000000 )
                  (  0.0000000  0.0000000 -1.0000000 )


      isym = 14     inv. 180 deg rotation - cart. axis [0,0,1]   

 cryst.   s(14) = (     1          0          0      )
                  (     0          1          0      )
                  (     0          0         -1      )

 cart.    s(14) = (  1.0000000  0.0000000  0.0000000 )
                  (  0.0000000  1.0000000  0.0000000 )
                  (  0.0000000  0.0000000 -1.0000000 )


      isym = 15     inv. 180 deg rotation - cart. axis [0,1,0]   

 cryst.   s(15) = (     1          0          0      )
                  (    -1         -1          0      )
                  (     0          0          1      )

 cart.    s(15) = (  1.0000000  0.0000000  0.0000000 )
                  (  0.0000000 -1.0000000  0.0000000 )
                  (  0.0000000  0.0000000  1.0000000 )


      isym = 16     inv. 180 deg rotation - cart. axis [1,0,0]   

 cryst.   s(16) = (    -1          0          0      )
                  (     1          1          0      )
                  (     0          0          1      )

 cart.    s(16) = ( -1.0000000  0.0000000  0.0000000 )
                  (  0.0000000  1.0000000  0.0000000 )
                  (  0.0000000  0.0000000  1.0000000 )


      isym = 17     inv.  60 deg rotation - cryst. axis [0,0,1]  

 cryst.   s(17) = (    -1         -1          0      )
                  (     1          0          0      )
                  (     0          0         -1      )

 cart.    s(17) = ( -0.5000000  0.8660254  0.0000000 )
                  ( -0.8660254 -0.5000000  0.0000000 )
                  (  0.0000000  0.0000000 -1.0000000 )


      isym = 18     inv.  60 deg rotation - cryst. axis [0,0,-1] 

 cryst.   s(18) = (     0          1          0      )
[...]
    -6.9812  -6.7105  -6.7104  -6.0070  -2.7931  -2.2905  -2.2905  -1.4316
    -0.3259   0.1799   0.1800

     occupation numbers 
     1.0000   1.0000   1.0000   1.0000   1.0000   1.0000   1.0000   1.0000
     1.0000   1.0000   1.0000   1.0000   1.0000   1.0000   1.0000   1.0000
     1.0000   1.0000   1.0000   1.0000   1.0000   1.0000   1.0000   1.0000
     1.0000   1.0000   1.0000   1.0000   1.0000   1.0000   1.0000   1.0000
     1.0000   1.0000   1.0000   1.0000  -0.0000  -0.0000  -0.0000  -0.0000
    -0.0000  -0.0000  -0.0000

          k = 0.2500 0.5292 0.0000 ( 77421 PWs)   bands (ev):

   -23.0912 -22.8747 -22.6587 -20.7477 -20.3331 -19.9236 -18.6078 -18.5037
   -18.3154 -17.2990 -17.1228 -17.0153 -14.4082 -14.0706 -13.5151 -12.7756
   -12.2699 -12.0039 -11.9458 -11.5541 -11.1979 -11.0594 -10.8035 -10.5492
   -10.5107 -10.0658  -9.4916  -9.3913  -8.9801  -8.6426  -8.3558  -7.8991
    -7.4505  -6.4851  -6.4591  -6.2210  -2.6675  -2.5686  -2.4992  -0.8878
    -0.3489  -0.0785   0.2183

     occupation numbers 
     1.0000   1.0000   1.0000   1.0000   1.0000   1.0000   1.0000   1.0000
     1.0000   1.0000   1.0000   1.0000   1.0000   1.0000   1.0000   1.0000
     1.0000   1.0000   1.0000   1.0000   1.0000   1.0000   1.0000   1.0000
     1.0000   1.0000   1.0000   1.0000   1.0000   1.0000   1.0000   1.0000
     1.0000   1.0000   1.0000   1.0000  -0.0000  -0.0000  -0.0000  -0.0000
    -0.0000  -0.0000  -0.0000

          k = 0.3333 0.5774 0.0000 ( 77382 PWs)   bands (ev):

   -22.8927 -22.8927 -22.8926 -20.3504 -20.3504 -20.3504 -18.3428 -18.3427
   -18.3427 -17.3058 -17.3058 -17.3057 -13.9344 -13.9343 -13.9343 -12.4020
   -12.4020 -12.4019 -11.5729 -11.5729 -11.5729 -10.8248 -10.8248 -10.8246
    -9.9709  -9.9709  -9.9709  -9.0136  -9.0135  -9.0135  -7.9148  -7.9148
    -7.9148  -6.3383  -6.3382  -6.3382  -2.6450  -2.6450  -2.6450  -0.3036
    -0.3036  -0.3036   0.1936

     occupation numbers 
     1.0000   1.0000   1.0000   1.0000   1.0000   1.0000   1.0000   1.0000
     1.0000   1.0000   1.0000   1.0000   1.0000   1.0000   1.0000   1.0000
     1.0000   1.0000   1.0000   1.0000   1.0000   1.0000   1.0000   1.0000
     1.0000   1.0000   1.0000   1.0000   1.0000   1.0000   1.0000   1.0000
     1.0000   1.0000   1.0000   1.0000  -0.0000  -0.0000  -0.0000  -0.0000
    -0.0000  -0.0000  -0.0000

     the Fermi energy is    -4.2448 ev

!    total energy              =    -331.99239854 Ry

     total all-electron energy =     -1371.746160 Ry
     estimated scf accuracy    <          7.0E-16 Ry
     smearing contrib. (-TS)   =      -0.00007814 Ry
     internal energy E=F+TS    =    -331.99232040 Ry

     The total energy is F=E-TS. E is the sum of the following terms:
     one-electron contribution =   -3212.79158016 Ry
     hartree contribution      =    1614.28626297 Ry
     xc contribution           =     -83.44691635 Ry
     ewald contribution        =    1460.96548207 Ry
     one-center paw contrib.   =    -111.00556893 Ry
      -> PAW hartree energy AE =       9.39906184 Ry
      -> PAW hartree energy PS =      -9.39041697 Ry
      -> PAW xc energy AE      =     -10.65248429 Ry
      -> PAW xc energy PS      =       4.47686386 Ry
      -> total E_H with PAW    =    1614.29490784 Ry
      -> total E_XC with PAW   =     -89.62253678 Ry

     convergence has been achieved in  14 iterations

     negative rho (up, down):  9.993E-04 0.000E+00

     Forces acting on atoms (cartesian axes, Ry/au):

     atom    1 type  1   force =    -0.00000000   -0.00000034    0.00000000
     atom    2 type  1   force =    -0.00000029   -0.00000017    0.00000000
     atom    3 type  1   force =    -0.00000006   -0.00000004    0.00000000
     atom    4 type  1   force =    -0.00000000   -0.00000028   -0.00000000
     atom    5 type  1   force =     0.00000006   -0.00000004   -0.00000000
     atom    6 type  1   force =     0.00000029   -0.00000017    0.00000000
     atom    7 type  1   force =    -0.00000024   -0.00000014    0.00000000
     atom    8 type  1   force =     0.00000000   -0.00000007   -0.00000000
     atom    9 type  1   force =     0.00000024   -0.00000014   -0.00000000
     atom   10 type  1   force =    -0.00000024    0.00000014   -0.00000000
     atom   11 type  1   force =     0.00000000    0.00000007   -0.00000000
     atom   12 type  1   force =     0.00000024    0.00000014    0.00000000
     atom   13 type  1   force =    -0.00000029    0.00000017    0.00000000
     atom   14 type  1   force =    -0.00000006    0.00000004    0.00000000
     atom   15 type  1   force =     0.00000000    0.00000028    0.00000000
     atom   16 type  1   force =     0.00000006    0.00000004   -0.00000000
     atom   17 type  1   force =     0.00000029    0.00000017    0.00000000
     atom   18 type  1   force =     0.00000000    0.00000034   -0.00000000
     The non-local contrib.  to forces
     atom    1 type  1   force =     0.00000000   -0.00002310    0.00000000
     atom    2 type  1   force =    -0.00002000   -0.00001155    0.00000000
     atom    3 type  1   force =    -0.00001263   -0.00000729   -0.00000000
     atom    4 type  1   force =     0.00000000   -0.00000876    0.00000000
     atom    5 type  1   force =     0.00001263   -0.00000729    0.00000000
     atom    6 type  1   force =     0.00002000   -0.00001155    0.00000000
     atom    7 type  1   force =    -0.00000759   -0.00000438   -0.00000000
     atom    8 type  1   force =     0.00000000   -0.00001458    0.00000000
     atom    9 type  1   force =     0.00000759   -0.00000438   -0.00000000
     atom   10 type  1   force =    -0.00000759    0.00000438   -0.00000000
     atom   11 type  1   force =     0.00000000    0.00001458   -0.00000000
     atom   12 type  1   force =     0.00000759    0.00000438    0.00000000
     atom   13 type  1   force =    -0.00002000    0.00001155    0.00000000
     atom   14 type  1   force =    -0.00001263    0.00000729    0.00000000
     atom   15 type  1   force =     0.00000000    0.00000876   -0.00000000
     atom   16 type  1   force =     0.00001263    0.00000729    0.00000000
     atom   17 type  1   force =     0.00002000    0.00001155    0.00000000
     atom   18 type  1   force =     0.00000000    0.00002310    0.00000000
     The ionic contribution  to forces
     atom    1 type  1   force =    -0.00000001   -0.00023052   -0.00000000
     atom    2 type  1   force =    -0.00019963   -0.00011527   -0.00000000
     atom    3 type  1   force =    -0.00009165   -0.00005292   -0.00000000
     atom    4 type  1   force =     0.00000000   -0.00012531   -0.00000000
     atom    5 type  1   force =     0.00009165   -0.00005291   -0.00000000
     atom    6 type  1   force =     0.00019964   -0.00011526   -0.00000000
     atom    7 type  1   force =    -0.00010852   -0.00006265   -0.00000000
     atom    8 type  1   force =     0.00000000   -0.00010583   -0.00000000
     atom    9 type  1   force =     0.00010851   -0.00006265   -0.00000000
     atom   10 type  1   force =    -0.00010851    0.00006265   -0.00000000
     atom   11 type  1   force =    -0.00000000    0.00010583   -0.00000000
     atom   12 type  1   force =     0.00010852    0.00006265   -0.00000000
     atom   13 type  1   force =    -0.00019964    0.00011526   -0.00000000
     atom   14 type  1   force =    -0.00009165    0.00005291   -0.00000000
     atom   15 type  1   force =    -0.00000000    0.00012531   -0.00000000
     atom   16 type  1   force =     0.00009165    0.00005292   -0.00000000
     atom   17 type  1   force =     0.00019963    0.00011527   -0.00000000
     atom   18 type  1   force =     0.00000001    0.00023052   -0.00000000
     The local contribution  to forces
     atom    1 type  1   force =    -0.00000000    0.00022290    0.00000000
     atom    2 type  1   force =     0.00019304    0.00011145    0.00000000
     atom    3 type  1   force =     0.00008667    0.00005004    0.00000000
     atom    4 type  1   force =     0.00000000    0.00012349    0.00000000
     atom    5 type  1   force =    -0.00008667    0.00005004    0.00000000
     atom    6 type  1   force =    -0.00019303    0.00011145    0.00000000
     atom    7 type  1   force =     0.00010694    0.00006175    0.00000000
     atom    8 type  1   force =     0.00000000    0.00010008    0.00000000
     atom    9 type  1   force =    -0.00010695    0.00006175    0.00000000
     atom   10 type  1   force =     0.00010695   -0.00006175    0.00000000
     atom   11 type  1   force =    -0.00000000   -0.00010008    0.00000000
     atom   12 type  1   force =    -0.00010694   -0.00006175    0.00000000
     atom   13 type  1   force =     0.00019303   -0.00011145    0.00000000
     atom   14 type  1   force =     0.00008667   -0.00005004    0.00000000
     atom   15 type  1   force =    -0.00000000   -0.00012349    0.00000000
     atom   16 type  1   force =    -0.00008667   -0.00005004    0.00000000
     atom   17 type  1   force =    -0.00019304   -0.00011145    0.00000000
     atom   18 type  1   force =     0.00000000   -0.00022290    0.00000000
     The core correction contribution to forces
     atom    1 type  1   force =     0.00000000    0.00003040    0.00000000
     atom    2 type  1   force =     0.00002633    0.00001520    0.00000000
     atom    3 type  1   force =     0.00001756    0.00001014    0.00000000
     atom    4 type  1   force =    -0.00000000    0.00001031    0.00000000
     atom    5 type  1   force =    -0.00001756    0.00001014    0.00000000
     atom    6 type  1   force =    -0.00002633    0.00001520    0.00000000
     atom    7 type  1   force =     0.00000893    0.00000515    0.00000000
     atom    8 type  1   force =     0.00000000    0.00002027    0.00000000
     atom    9 type  1   force =    -0.00000893    0.00000515    0.00000000
     atom   10 type  1   force =     0.00000893   -0.00000515    0.00000000
     atom   11 type  1   force =    -0.00000000   -0.00002027   -0.00000000
     atom   12 type  1   force =    -0.00000893   -0.00000515    0.00000000
     atom   13 type  1   force =     0.00002633   -0.00001520    0.00000000
     atom   14 type  1   force =     0.00001756   -0.00001014    0.00000000
     atom   15 type  1   force =     0.00000000   -0.00001031    0.00000000
     atom   16 type  1   force =    -0.00001756   -0.00001014    0.00000000
     atom   17 type  1   force =    -0.00002633   -0.00001520    0.00000000
     atom   18 type  1   force =    -0.00000000   -0.00003040    0.00000000
     The Hubbard contrib.    to forces
     atom    1 type  1   force =     0.00000000    0.00000000    0.00000000
     atom    2 type  1   force =     0.00000000    0.00000000    0.00000000
     atom    3 type  1   force =     0.00000000    0.00000000    0.00000000
     atom    4 type  1   force =     0.00000000    0.00000000    0.00000000
     atom    5 type  1   force =     0.00000000    0.00000000    0.00000000
     atom    6 type  1   force =     0.00000000    0.00000000    0.00000000
     atom    7 type  1   force =     0.00000000    0.00000000    0.00000000
     atom    8 type  1   force =     0.00000000    0.00000000    0.00000000
     atom    9 type  1   force =     0.00000000    0.00000000    0.00000000
     atom   10 type  1   force =     0.00000000    0.00000000    0.00000000
     atom   11 type  1   force =     0.00000000    0.00000000    0.00000000
     atom   12 type  1   force =     0.00000000    0.00000000    0.00000000
     atom   13 type  1   force =     0.00000000    0.00000000    0.00000000
     atom   14 type  1   force =     0.00000000    0.00000000    0.00000000
     atom   15 type  1   force =     0.00000000    0.00000000    0.00000000
     atom   16 type  1   force =     0.00000000    0.00000000    0.00000000
     atom   17 type  1   force =     0.00000000    0.00000000    0.00000000
     atom   18 type  1   force =     0.00000000    0.00000000    0.00000000
     The SCF correction term to forces
     atom    1 type  1   force =     0.00000000   -0.00000002   -0.00000000
     atom    2 type  1   force =    -0.00000002   -0.00000001   -0.00000000
     atom    3 type  1   force =    -0.00000001   -0.00000001   -0.00000000
     atom    4 type  1   force =    -0.00000000   -0.00000001   -0.00000000
     atom    5 type  1   force =     0.00000001   -0.00000001   -0.00000000
     atom    6 type  1   force =     0.00000002   -0.00000001   -0.00000000
     atom    7 type  1   force =    -0.00000001   -0.00000000   -0.00000000
     atom    8 type  1   force =     0.00000000   -0.00000002   -0.00000000
     atom    9 type  1   force =     0.00000001   -0.00000000   -0.00000000
     atom   10 type  1   force =    -0.00000001    0.00000000   -0.00000000
     atom   11 type  1   force =     0.00000000    0.00000002   -0.00000000
     atom   12 type  1   force =     0.00000001    0.00000000   -0.00000000
     atom   13 type  1   force =    -0.00000002    0.00000001   -0.00000000
     atom   14 type  1   force =    -0.00000001    0.00000001   -0.00000000
     atom   15 type  1   force =    -0.00000000    0.00000001   -0.00000000
     atom   16 type  1   force =     0.00000001    0.00000001   -0.00000000
     atom   17 type  1   force =     0.00000002    0.00000001   -0.00000000
     atom   18 type  1   force =     0.00000000    0.00000002   -0.00000000

     Total force =     0.000001     Total SCF correction =     0.000000


     Computing stress (Cartesian axis) and pressure


     negative rho (up, down):  9.993E-04 0.000E+00
          total   stress  (Ry/bohr**3)                   (kbar)     P=       -0.02
   0.00000001   0.00000000  -0.00000000            0.00        0.00       -0.00
   0.00000000   0.00000001   0.00000000            0.00        0.00        0.00
  -0.00000000   0.00000000  -0.00000034           -0.00        0.00       -0.05

     kinetic stress (kbar)   1933.95      0.00      0.00
                                0.00   1933.95     -0.00
                                0.00      0.00   2195.95

     local   stress (kbar) -76483.12      0.00     -0.00
                                0.00 -76483.12     -0.00
                               -0.00     -0.00  76343.05

     nonloc. stress (kbar)    490.64      0.00     -0.00
                                0.00    490.64     -0.00
                                0.00     -0.00    447.81

     hartree stress (kbar)  36913.02      0.00     -0.00
                                0.00  36913.02      0.00
                               -0.00      0.00 -36740.77

     exc-cor stress (kbar)    -34.59     -0.00      0.00
                               -0.00    -34.59      0.00
                                0.00      0.00    -56.59

     corecor stress (kbar)   -466.81      0.00     -0.00
                                0.00   -466.81     -0.00
                               -0.00     -0.00   -458.69

     ewald   stress (kbar)  37646.90     -0.00     -0.00
                               -0.00  37646.90     -0.00
                               -0.00     -0.00 -41730.80

     hubbard stress (kbar)      0.00      0.00      0.00
                                0.00      0.00      0.00
                                0.00      0.00      0.00

     DFT-D   stress (kbar)      0.00      0.00      0.00
                                0.00      0.00      0.00
                                0.00      0.00      0.00

     XDM     stress (kbar)      0.00      0.00      0.00
                                0.00      0.00      0.00
                                0.00      0.00      0.00

     dft-nl  stress (kbar)      0.00      0.00      0.00
                                0.00      0.00      0.00
                                0.00      0.00      0.00

     TS-vdW  stress (kbar)      0.00      0.00      0.00
                                0.00      0.00      0.00
                                0.00      0.00      0.00


                                0.00      0.00      0.00
                                0.00      0.00      0.00


                                0.00      0.00      0.00


     Writing all to output data dir ./outdir/graphene.save/
 
     init_run     :     47.55s CPU     57.42s WALL (       2 calls)
     electrons    :    973.74s CPU   1184.85s WALL (       2 calls)
     forces       :     14.99s CPU     18.60s WALL (       2 calls)
     stress       :     54.31s CPU     63.93s WALL (       2 calls)

     Called by init_run:
     wfcinit      :     22.93s CPU     29.02s WALL (       2 calls)
     wfcinit:atom :      0.25s CPU      0.36s WALL (       6 calls)
     wfcinit:wfcr :     21.94s CPU     27.77s WALL (       6 calls)
     potinit      :     12.63s CPU     14.98s WALL (       2 calls)
     hinit0       :      7.26s CPU      8.11s WALL (       2 calls)

     Called by electrons:
     c_bands      :    727.09s CPU    872.37s WALL (      29 calls)
     sum_band     :    163.63s CPU    204.42s WALL (      29 calls)
     v_of_rho     :     45.60s CPU     58.32s WALL (      31 calls)
     v_h          :      4.35s CPU      4.87s WALL (      31 calls)
     v_xc         :     43.46s CPU     57.50s WALL (      35 calls)
     newd         :     13.62s CPU     15.73s WALL (      31 calls)
     PAW_pot      :      9.85s CPU     15.34s WALL (      31 calls)
     mix_rho      :      4.79s CPU      5.70s WALL (      29 calls)

     Called by c_bands:
     init_us_2    :     13.93s CPU     18.08s WALL (     192 calls)
     init_us_2:cp :     13.92s CPU     18.07s WALL (     192 calls)
     cegterg      :    654.43s CPU    789.85s WALL (      87 calls)

     Called by sum_band:
     sum_band:wei :      1.26s CPU      1.29s WALL (      29 calls)
     sum_band:loo :    135.70s CPU    165.50s WALL (      29 calls)
     sum_band:buf :      2.20s CPU      3.10s WALL (      87 calls)
     sum_band:ini :      5.87s CPU      6.55s WALL (      87 calls)
     sum_band:cal :      4.71s CPU      6.12s WALL (      87 calls)
     sum_band:bec :      0.01s CPU      0.01s WALL (      87 calls)
     addusdens    :      5.40s CPU      9.03s WALL (      29 calls)
     addusd:skk   :      0.27s CPU      0.83s WALL (      29 calls)
     addusd:dgemm :      1.23s CPU      2.51s WALL (      29 calls)
     addusd:qvan2 :      1.08s CPU      1.51s WALL (      29 calls)

     Called by *egterg:
     cdiaghg      :      1.45s CPU      1.79s WALL (     442 calls)
     cegterg:over :     16.40s CPU     18.26s WALL (     355 calls)
     cegterg:upda :     33.82s CPU     43.76s WALL (     355 calls)
     cegterg:last :     39.76s CPU     43.28s WALL (     197 calls)
     cdiaghg:chol :      0.14s CPU      0.15s WALL (     442 calls)
     cdiaghg:inve :      0.02s CPU      0.03s WALL (     442 calls)
     cdiaghg:para :      0.21s CPU      0.24s WALL (     884 calls)
     h_psi        :    543.81s CPU    663.00s WALL (     448 calls)
     s_psi        :     22.45s CPU     25.49s WALL (     448 calls)
     g_psi        :      2.69s CPU      2.78s WALL (     355 calls)

     Called by h_psi:
     h_psi:calbec :     17.57s CPU     18.71s WALL (     448 calls)
     vloc_psi     :    497.34s CPU    607.30s WALL (     448 calls)
     add_vuspsi   :     23.04s CPU     28.72s WALL (     448 calls)

     General routines
     calbec       :     23.84s CPU     26.96s WALL (     565 calls)
     fft          :     35.02s CPU     46.55s WALL (     449 calls)
     ffts         :      3.87s CPU      5.81s WALL (      60 calls)
     fftw         :    403.25s CPU    511.83s WALL (   26135 calls)
     interpolate  :      5.39s CPU      6.83s WALL (      31 calls)
 
     Parallel routines

     PAW routines
     PAW_pot      :      9.85s CPU     15.34s WALL (      31 calls)
     PAW_symme    :      3.67s CPU      3.94s WALL (      60 calls)
 
     PWSCF        :  18m11.68s CPU  22m16.16s WALL

 
   This run was terminated on:   1: 5:22  23Jun2022            

=------------------------------------------------------------------------------=
   JOB DONE.
=------------------------------------------------------------------------------=
