
     Program PHONON v.6.7MaX starts on  8Jul2021 at 21:38:51 

     This program is part of the open-source Quantum ESPRESSO suite
     for quantum simulation of materials; please cite
         "P. Giannozzi et al., J. Phys.:Condens. Matter 21 395502 (2009);
         "P. Giannozzi et al., J. Phys.:Condens. Matter 29 465901 (2017);
          URL http://www.quantum-espresso.org", 
     in publications or presentations arising from this work. More details at
     http://www.quantum-espresso.org/quote

     Parallel version (MPI & OpenMP), running on      56 processor cores
     Number of MPI processes:                28
     Threads/MPI process:                     2

     MPI processes distributed on     1 nodes
     K-points division:     npool     =      28
     Waiting for input...
     Reading input from standard input

     Reading xml data from directory:

     ./carbyne.save/
     file C.pbe-n-kjpaw_psl.1.0.0.UPF: wavefunction(s)  2S 2P renormalized

     IMPORTANT: XC functional enforced from input :
     Exchange-correlation= PBE
                           (   1   4   3   4   0   0   0)
     Any further DFT definition will be discarded
     Please, verify this is what you really want

 
     G-vector sticks info
     --------------------
     sticks:   dense  smooth     PW     G-vecs:    dense   smooth      PW
     Sum        2927    1445    425               233967    82581   13359
 

     Check: negative core charge=   -0.000001

     negative rho (up, down):  1.845E-04 0.000E+00
     Reading collected, re-writing distributed wavefunctions


     Dynamical matrices for (80, 1, 1)  uniform grid of q-points
     (  41 q-points):
       N         xq(1)         xq(2)         xq(3) 
       1   0.000000000   0.000000000   0.000000000
       2   0.012500000   0.000000000   0.000000000
       3   0.025000000   0.000000000   0.000000000
       4   0.037500000   0.000000000   0.000000000
       5   0.050000000   0.000000000   0.000000000
       6   0.062500000   0.000000000   0.000000000
       7   0.075000000   0.000000000   0.000000000
       8   0.087500000   0.000000000   0.000000000
       9   0.100000000   0.000000000   0.000000000
      10   0.112500000   0.000000000   0.000000000
      11   0.125000000   0.000000000   0.000000000
      12   0.137500000   0.000000000   0.000000000
      13   0.150000000   0.000000000   0.000000000
      14   0.162500000   0.000000000   0.000000000
      15   0.175000000   0.000000000   0.000000000
      16   0.187500000   0.000000000   0.000000000
      17   0.200000000   0.000000000   0.000000000
      18   0.212500000   0.000000000   0.000000000
      19   0.225000000   0.000000000   0.000000000
      20   0.237500000   0.000000000   0.000000000
      21   0.250000000   0.000000000   0.000000000
      22   0.262500000   0.000000000   0.000000000
      23   0.275000000   0.000000000   0.000000000
      24   0.287500000   0.000000000   0.000000000
      25   0.300000000   0.000000000   0.000000000
      26   0.312500000   0.000000000   0.000000000
      27   0.325000000   0.000000000   0.000000000
      28   0.337500000   0.000000000   0.000000000
      29   0.350000000   0.000000000   0.000000000
      30   0.362500000   0.000000000   0.000000000
      31   0.375000000   0.000000000   0.000000000
      32   0.387500000   0.000000000   0.000000000
      33   0.400000000   0.000000000   0.000000000
      34   0.412500000   0.000000000   0.000000000
      35   0.425000000   0.000000000   0.000000000
      36   0.437500000   0.000000000   0.000000000
      37   0.450000000   0.000000000   0.000000000
      38   0.462500000   0.000000000   0.000000000
      39   0.475000000   0.000000000   0.000000000
      40   0.487500000   0.000000000   0.000000000
      41  -0.500000000   0.000000000   0.000000000

     Saving dvscf to file. Distribute only q points, not irreducible represetations.

     Calculation of q =    0.0000000   0.0000000   0.0000000

     phonons calculation                                                        

     bravais-lattice index     =            0
     lattice parameter (alat)  =       4.8481  a.u.
     unit-cell volume          =    1731.2924 (a.u.)^3
     number of atoms/cell      =            2
     number of atomic types    =            1
     kinetic-energy cut-off    =      50.0000  Ry
     charge density cut-off    =     400.0000  Ry
     convergence threshold     =      1.0E-16
     beta                      =       0.7000
     number of iterations used =            4
     Exchange-correlation= PBE
                           (   1   4   3   4   0   0   0)


     celldm(1)=    4.84811  celldm(2)=    0.00000  celldm(3)=    0.00000
     celldm(4)=    0.00000  celldm(5)=    0.00000  celldm(6)=    0.00000

     crystal axes: (cart. coord. in units of alat)
               a(1) = (  1.0000  0.0000  0.0000 )  
               a(2) = (  0.0000  3.8979  0.0000 )  
               a(3) = (  0.0000  0.0000  3.8979 )  

     reciprocal axes: (cart. coord. in units 2 pi/alat)
               b(1) = (  1.0000  0.0000  0.0000 )  
               b(2) = (  0.0000  0.2566  0.0000 )  
               b(3) = (  0.0000  0.0000  0.2566 )  


     Atoms inside the unit cell: 

     Cartesian axes

     site n.  atom      mass           positions (alat units)
        1     C   12.0107   tau(    1) = (    0.00012    1.94893    1.94893  )
        2     C   12.0107   tau(    2) = (    0.49285    1.94893    1.94893  )

     Computing dynamical matrix for 
                    q = (   0.0000000   0.0000000   0.0000000 )
 
      9 Sym.Ops. (with q -> -q+G )


     G cutoff =  238.1473  ( 233967 G-vectors)     FFT grid: ( 32,125,125)
     G cutoff =  119.0736  (  82581 G-vectors)  smooth grid: ( 24, 90, 90)
     number of k points=    81

     PseudoPot. # 1 for C  read from file:
     ./pseudo/C.pbe-n-kjpaw_psl.1.0.0.UPF
     MD5 check sum: 6fec8efd722f5d988670a8dc528584a2
     Pseudo is Projector augmented-wave + core cor, Zval =  4.0
     Generated using "atomic" code by A. Dal Corso  v.5.1.2
     Shape of augmentation charge: PSQ
     Using radial grid of 1073 points,  4 beta functions with: 
                l(1) =   0
                l(2) =   0
                l(3) =   1
                l(4) =   1
     Q(r) pseudized with 0 coefficients 


     Mode symmetry, C_4v (4mm)  point group:


     Electric field:
     Dielectric constant
     Born effective charges in two ways 


     Atomic displacements:
     There are    4 irreducible representations

     Representation     1      1 modes -  To be done

     Representation     2      1 modes -  To be done

     Representation     3      2 modes -  To be done

     Representation     4      2 modes -  To be done



     Alpha used in Ewald sum =   2.8000

     negative rho (up, down):  1.845E-04 0.000E+00
     PHONON       :     29.86s CPU     26.06s WALL


     Electric Fields Calculation

      iter #   1 total cpu time :    37.3 secs   av.it.:   5.0
      thresh= 1.000E-02 alpha_mix =  0.700 |ddv_scf|^2 =  1.157E-06

      iter #   2 total cpu time :    44.9 secs   av.it.:   9.8
      thresh= 1.075E-04 alpha_mix =  0.700 |ddv_scf|^2 =  2.046E-06

      iter #   3 total cpu time :    55.2 secs   av.it.:   8.2
      thresh= 1.430E-04 alpha_mix =  0.700 |ddv_scf|^2 =  1.267E-07

      iter #   4 total cpu time :    64.5 secs   av.it.:   8.9
      thresh= 3.559E-05 alpha_mix =  0.700 |ddv_scf|^2 =  2.255E-09

      iter #   5 total cpu time :    73.8 secs   av.it.:   9.0
      thresh= 4.748E-06 alpha_mix =  0.700 |ddv_scf|^2 =  5.613E-12

      iter #   6 total cpu time :    82.9 secs   av.it.:   8.8
      thresh= 2.369E-07 alpha_mix =  0.700 |ddv_scf|^2 =  3.408E-14

      iter #   7 total cpu time :    92.2 secs   av.it.:   8.9
      thresh= 1.846E-08 alpha_mix =  0.700 |ddv_scf|^2 =  7.264E-16

      iter #   8 total cpu time :    99.4 secs   av.it.:   9.4
      thresh= 2.695E-09 alpha_mix =  0.700 |ddv_scf|^2 =  4.922E-18

     End of electric fields calculation

          Dielectric constant in cartesian axis 

          (      99.236004303       0.000000000       0.000000000 )
          (       0.000000000       1.083502268       0.000000000 )
          (       0.000000000       0.000000000       1.083502268 )

          Effective charges (d Force / dE) in cartesian axis

           atom      1   C  
      Ex  (        0.00182        0.00000        0.00000 )
      Ey  (        0.00000        0.00119        0.00000 )
      Ez  (        0.00000        0.00000        0.00119 )
           atom      2   C  
      Ex  (        0.00281        0.00000        0.00000 )
      Ey  (        0.00000        0.00097        0.00000 )
      Ez  (        0.00000        0.00000        0.00097 )


     Representation #   1 mode #   1

     Self-consistent Calculation

      iter #   1 total cpu time :   107.9 secs   av.it.:   5.9
      thresh= 1.000E-02 alpha_mix =  0.700 |ddv_scf|^2 =  1.399E-07

      iter #   2 total cpu time :   111.0 secs   av.it.:  10.3
      thresh= 3.740E-05 alpha_mix =  0.700 |ddv_scf|^2 =  1.215E-08

      iter #   3 total cpu time :   114.1 secs   av.it.:  10.6
      thresh= 1.102E-05 alpha_mix =  0.700 |ddv_scf|^2 =  3.258E-09

      iter #   4 total cpu time :   117.7 secs   av.it.:  10.4
      thresh= 5.708E-06 alpha_mix =  0.700 |ddv_scf|^2 =  3.626E-09

      iter #   5 total cpu time :   121.2 secs   av.it.:   9.9
      thresh= 6.022E-06 alpha_mix =  0.700 |ddv_scf|^2 =  1.272E-12

      iter #   6 total cpu time :   124.3 secs   av.it.:  10.7
      thresh= 1.128E-07 alpha_mix =  0.700 |ddv_scf|^2 =  1.981E-14

      iter #   7 total cpu time :   127.3 secs   av.it.:  10.0
      thresh= 1.407E-08 alpha_mix =  0.700 |ddv_scf|^2 =  1.890E-15

      iter #   8 total cpu time :   130.1 secs   av.it.:   9.7
      thresh= 4.347E-09 alpha_mix =  0.700 |ddv_scf|^2 =  3.472E-18

     End of self-consistent calculation

     Convergence has been achieved 


     Representation #   2 mode #   2

     Self-consistent Calculation

      iter #   1 total cpu time :   134.5 secs   av.it.:   5.9
      thresh= 1.000E-02 alpha_mix =  0.700 |ddv_scf|^2 =  1.590E-07

      iter #   2 total cpu time :   137.5 secs   av.it.:  10.2
      thresh= 3.987E-05 alpha_mix =  0.700 |ddv_scf|^2 =  1.426E-08

      iter #   3 total cpu time :   140.9 secs   av.it.:  10.5
      thresh= 1.194E-05 alpha_mix =  0.700 |ddv_scf|^2 =  3.279E-09

      iter #   4 total cpu time :   144.4 secs   av.it.:  10.5
      thresh= 5.726E-06 alpha_mix =  0.700 |ddv_scf|^2 =  3.887E-09

      iter #   5 total cpu time :   147.7 secs   av.it.:   9.8
      thresh= 6.235E-06 alpha_mix =  0.700 |ddv_scf|^2 =  5.304E-13

      iter #   6 total cpu time :   150.9 secs   av.it.:  10.7
      thresh= 7.283E-08 alpha_mix =  0.700 |ddv_scf|^2 =  2.291E-14

      iter #   7 total cpu time :   154.0 secs   av.it.:  10.0
      thresh= 1.514E-08 alpha_mix =  0.700 |ddv_scf|^2 =  2.064E-15

      iter #   8 total cpu time :   156.7 secs   av.it.:   9.7
      thresh= 4.543E-09 alpha_mix =  0.700 |ddv_scf|^2 =  3.842E-18

     End of self-consistent calculation

     Convergence has been achieved 


     Representation #   3 modes #   3   4

     Self-consistent Calculation

      iter #   1 total cpu time :   164.3 secs   av.it.:   5.7
      thresh= 1.000E-02 alpha_mix =  0.700 |ddv_scf|^2 =  1.020E-07

      iter #   2 total cpu time :   170.9 secs   av.it.:  10.1
      thresh= 3.194E-05 alpha_mix =  0.700 |ddv_scf|^2 =  1.149E-08

      iter #   3 total cpu time :   176.5 secs   av.it.:  10.1
      thresh= 1.072E-05 alpha_mix =  0.700 |ddv_scf|^2 =  8.661E-10

      iter #   4 total cpu time :   182.3 secs   av.it.:  10.0
      thresh= 2.943E-06 alpha_mix =  0.700 |ddv_scf|^2 =  1.154E-13

      iter #   5 total cpu time :   188.7 secs   av.it.:  10.0
      thresh= 3.396E-08 alpha_mix =  0.700 |ddv_scf|^2 =  4.540E-15

      iter #   6 total cpu time :   193.8 secs   av.it.:   9.5
      thresh= 6.738E-09 alpha_mix =  0.700 |ddv_scf|^2 =  4.298E-17

     End of self-consistent calculation

     Convergence has been achieved 


     Representation #   4 modes #   5   6

     Self-consistent Calculation

      iter #   1 total cpu time :   200.0 secs   av.it.:   5.7
      thresh= 1.000E-02 alpha_mix =  0.700 |ddv_scf|^2 =  1.192E-07

      iter #   2 total cpu time :   205.4 secs   av.it.:  10.1
      thresh= 3.452E-05 alpha_mix =  0.700 |ddv_scf|^2 =  1.226E-08

      iter #   3 total cpu time :   211.1 secs   av.it.:  10.1
      thresh= 1.107E-05 alpha_mix =  0.700 |ddv_scf|^2 =  1.043E-09

      iter #   4 total cpu time :   216.9 secs   av.it.:  10.0
      thresh= 3.229E-06 alpha_mix =  0.700 |ddv_scf|^2 =  1.844E-13

      iter #   5 total cpu time :   223.6 secs   av.it.:  10.0
      thresh= 4.294E-08 alpha_mix =  0.700 |ddv_scf|^2 =  6.774E-15

      iter #   6 total cpu time :   228.8 secs   av.it.:   9.1
      thresh= 8.230E-09 alpha_mix =  0.700 |ddv_scf|^2 =  4.461E-17

     End of self-consistent calculation

     Convergence has been achieved 
 
     Number of q in the star =    1
     List of q in the star:
          1   0.000000000   0.000000000   0.000000000

          Dielectric constant in cartesian axis 

          (      99.236004303       0.000000000       0.000000000 )
          (       0.000000000       1.083502268       0.000000000 )
          (       0.000000000       0.000000000       1.083502268 )

          Effective charges (d Force / dE) in cartesian axis

           atom      1   C  
      Ex  (        0.00182        0.00000        0.00000 )
      Ey  (        0.00000        0.00119        0.00000 )
      Ez  (        0.00000        0.00000        0.00119 )
           atom      2   C  
      Ex  (        0.00281        0.00000        0.00000 )
      Ey  (        0.00000        0.00097        0.00000 )
      Ez  (        0.00000        0.00000        0.00097 )

          Effective charges (d P / du) in cartesian axis 

           atom      1   C  
      Px  (       -0.00030        0.00000        0.00000 )
      Py  (        0.00000        0.00114        0.00000 )
      Pz  (        0.00000        0.00000        0.00114 )
           atom      2   C  
      Px  (        0.00069        0.00000        0.00000 )
      Py  (        0.00000        0.00092        0.00000 )
      Pz  (        0.00000        0.00000        0.00092 )

     Diagonalizing the dynamical matrix

     q = (    0.000000000   0.000000000   0.000000000 ) 

 **************************************************************************
     freq (    1) =      -1.725289 [THz] =     -57.549434 [cm-1]
     freq (    2) =       0.894394 [THz] =      29.833767 [cm-1]
     freq (    3) =       0.894394 [THz] =      29.833767 [cm-1]
     freq (    4) =      14.718826 [THz] =     490.967192 [cm-1]
     freq (    5) =      14.718826 [THz] =     490.967192 [cm-1]
     freq (    6) =      36.609626 [THz] =    1221.165677 [cm-1]
 **************************************************************************

     Mode symmetry, C_4v (4mm)  point group:

     freq (   1-   1) =        -57.5  [cm-1]   --> A_1  G_1 D_1    I+R
     freq (   2-   3) =         29.8  [cm-1]   --> E    G_5 D_5    I+R
     freq (   4-   5) =        491.0  [cm-1]   --> E    G_5 D_5    I+R
     freq (   6-   6) =       1221.2  [cm-1]   --> A_1  G_1 D_1    I+R

     Calculation of q =    0.0125000   0.0000000   0.0000000

     Subspace diagonalization in iterative solution of the eigenvalue problem:
     a serial algorithm will be used

 
     G-vector sticks info
     --------------------
     sticks:   dense  smooth     PW     G-vecs:    dense   smooth      PW
     Sum        2927    1445    425               233967    82581   13391
 

     Title: 
     phonons calculation                                                        


     bravais-lattice index     =            0
     lattice parameter (alat)  =       4.8481  a.u.
     unit-cell volume          =    1731.2924 (a.u.)^3
     number of atoms/cell      =            2
     number of atomic types    =            1
     number of electrons       =         8.00
     number of Kohn-Sham states=            4
     kinetic-energy cutoff     =      50.0000  Ry
     charge density cutoff     =     400.0000  Ry
     Exchange-correlation= PBE
                           (   1   4   3   4   0   0   0)

     celldm(1)=   4.848113  celldm(2)=   0.000000  celldm(3)=   0.000000
     celldm(4)=   0.000000  celldm(5)=   0.000000  celldm(6)=   0.000000

     crystal axes: (cart. coord. in units of alat)
               a(1) = (   1.000000   0.000000   0.000000 )  
               a(2) = (   0.000000   3.897859   0.000000 )  
               a(3) = (   0.000000   0.000000   3.897859 )  

     reciprocal axes: (cart. coord. in units 2 pi/alat)
               b(1) = (  1.000000  0.000000  0.000000 )  
               b(2) = (  0.000000  0.256551  0.000000 )  
               b(3) = (  0.000000  0.000000  0.256551 )  


     PseudoPot. # 1 for C  read from file:
     ./pseudo/C.pbe-n-kjpaw_psl.1.0.0.UPF
     MD5 check sum: 6fec8efd722f5d988670a8dc528584a2
     Pseudo is Projector augmented-wave + core cor, Zval =  4.0
     Generated using "atomic" code by A. Dal Corso  v.5.1.2
     Shape of augmentation charge: PSQ
     Using radial grid of 1073 points,  4 beta functions with: 
                l(1) =   0
                l(2) =   0
                l(3) =   1
                l(4) =   1
     Q(r) pseudized with 0 coefficients 


     atomic species   valence    mass     pseudopotential
        C              4.00    12.01070     C ( 1.00)

      8 Sym. Ops. (no inversion) found



   Cartesian axes

     site n.     atom                  positions (alat units)
         1           C   tau(   1) = (   0.0001249   1.9489297   1.9489297  )
         2           C   tau(   2) = (   0.4928489   1.9489297   1.9489297  )

     number of k points=   320

     Number of k-points >= 100: set verbosity='high' to print them.

     Dense  grid:   233967 G-vectors     FFT dimensions: (  32, 125, 125)

     Smooth grid:    82581 G-vectors     FFT dimensions: (  24,  90,  90)

     Estimated max dynamical RAM per process >      78.84 MB

     Estimated total dynamical RAM >       2.16 GB

     Check: negative core charge=   -0.000001

     The potential is recalculated from file :
     ./_ph0/carbyne.q_2/carbyne.save/charge-density


     negative rho (up, down):  1.845E-04 0.000E+00
     Starting wfcs are    8 atomic wfcs
     Checking if some PAW data can be deallocated... 

     Band Structure Calculation
     Davidson diagonalization with overlap

     ethr =  1.25E-10,  avg # of iterations = 10.2

     total cpu time spent up to now is        6.2 secs

     End of band structure calculation

     Number of k-points >= 100: set verbosity='high' to print the bands.

     highest occupied level (ev):    -4.5831

     Writing output data file ./_ph0/carbyne.q_2/carbyne.save/

     phonons calculation                                                        

     bravais-lattice index     =            0
     lattice parameter (alat)  =       4.8481  a.u.
     unit-cell volume          =    1731.2924 (a.u.)^3
     number of atoms/cell      =            2
     number of atomic types    =            1
     kinetic-energy cut-off    =      50.0000  Ry
     charge density cut-off    =     400.0000  Ry
     convergence threshold     =      1.0E-16
     beta                      =       0.7000
     number of iterations used =            4
     Exchange-correlation= PBE
                           (   1   4   3   4   0   0   0)


     celldm(1)=    4.84811  celldm(2)=    0.00000  celldm(3)=    0.00000
     celldm(4)=    0.00000  celldm(5)=    0.00000  celldm(6)=    0.00000

     crystal axes: (cart. coord. in units of alat)
               a(1) = (  1.0000  0.0000  0.0000 )  
               a(2) = (  0.0000  3.8979  0.0000 )  
               a(3) = (  0.0000  0.0000  3.8979 )  

     reciprocal axes: (cart. coord. in units 2 pi/alat)
               b(1) = (  1.0000  0.0000  0.0000 )  
               b(2) = (  0.0000  0.2566  0.0000 )  
               b(3) = (  0.0000  0.0000  0.2566 )  


     Atoms inside the unit cell: 

     Cartesian axes

     site n.  atom      mass           positions (alat units)
        1     C   12.0107   tau(    1) = (    0.00012    1.94893    1.94893  )
        2     C   12.0107   tau(    2) = (    0.49285    1.94893    1.94893  )

     Computing dynamical matrix for 
                    q = (   0.0125000   0.0000000   0.0000000 )
 
      8 Sym.Ops. (no q -> -q+G )


     G cutoff =  238.1473  ( 233967 G-vectors)     FFT grid: ( 32,125,125)
     G cutoff =  119.0736  (  82581 G-vectors)  smooth grid: ( 24, 90, 90)
     number of k points=   320

     PseudoPot. # 1 for C  read from file:
     ./pseudo/C.pbe-n-kjpaw_psl.1.0.0.UPF
     MD5 check sum: 6fec8efd722f5d988670a8dc528584a2
     Pseudo is Projector augmented-wave + core cor, Zval =  4.0
     Generated using "atomic" code by A. Dal Corso  v.5.1.2
     Shape of augmentation charge: PSQ
     Using radial grid of 1073 points,  4 beta functions with: 
                l(1) =   0
                l(2) =   0
                l(3) =   1
                l(4) =   1
     Q(r) pseudized with 0 coefficients 


     Mode symmetry, C_4v (4mm)  point group:


     Atomic displacements:
     There are    4 irreducible representations

     Representation     1      1 modes -  To be done

     Representation     2      1 modes -  To be done

     Representation     3      2 modes -  To be done

     Representation     4      2 modes -  To be done



     Alpha used in Ewald sum =   2.8000

     negative rho (up, down):  1.845E-04 0.000E+00
     PHONON       :   6m 0.17s CPU   4m17.53s WALL



     Representation #   1 mode #   1

     Self-consistent Calculation

      iter #   1 total cpu time :   260.8 secs   av.it.:   5.9
      thresh= 1.000E-02 alpha_mix =  0.700 |ddv_scf|^2 =  4.395E-02

      iter #   2 total cpu time :   264.4 secs   av.it.:   6.7
      thresh= 1.000E-02 alpha_mix =  0.700 |ddv_scf|^2 =  1.412E+02

      iter #   3 total cpu time :   268.1 secs   av.it.:   6.4
      thresh= 1.000E-02 alpha_mix =  0.700 |ddv_scf|^2 =  4.341E-03

      iter #   4 total cpu time :   271.5 secs   av.it.:   4.4
      thresh= 6.589E-03 alpha_mix =  0.700 |ddv_scf|^2 =  2.920E-06

      iter #   5 total cpu time :   275.4 secs   av.it.:   6.5
      thresh= 1.709E-04 alpha_mix =  0.700 |ddv_scf|^2 =  3.332E-04

      iter #   6 total cpu time :   279.5 secs   av.it.:   5.1
      thresh= 1.825E-03 alpha_mix =  0.700 |ddv_scf|^2 =  1.654E-04

      iter #   7 total cpu time :   283.0 secs   av.it.:   5.4
      thresh= 1.286E-03 alpha_mix =  0.700 |ddv_scf|^2 =  2.787E-04

      iter #   8 total cpu time :   286.5 secs   av.it.:   5.2
      thresh= 1.670E-03 alpha_mix =  0.700 |ddv_scf|^2 =  1.771E-04

      iter #   9 total cpu time :   290.1 secs   av.it.:   4.8
      thresh= 1.331E-03 alpha_mix =  0.700 |ddv_scf|^2 =  8.777E-08

      iter #  10 total cpu time :   293.9 secs   av.it.:   6.7
      thresh= 2.963E-05 alpha_mix =  0.700 |ddv_scf|^2 =  1.100E-05

      iter #  11 total cpu time :   297.4 secs   av.it.:   4.8
      thresh= 3.316E-04 alpha_mix =  0.700 |ddv_scf|^2 =  4.685E-08

      iter #  12 total cpu time :   300.8 secs   av.it.:   5.4
      thresh= 2.164E-05 alpha_mix =  0.700 |ddv_scf|^2 =  5.675E-09

      iter #  13 total cpu time :   304.3 secs   av.it.:   5.3
      thresh= 7.533E-06 alpha_mix =  0.700 |ddv_scf|^2 =  1.086E-10

      iter #  14 total cpu time :   307.8 secs   av.it.:   5.6
      thresh= 1.042E-06 alpha_mix =  0.700 |ddv_scf|^2 =  1.530E-10

      iter #  15 total cpu time :   311.2 secs   av.it.:   5.0
      thresh= 1.237E-06 alpha_mix =  0.700 |ddv_scf|^2 =  1.561E-12

      iter #  16 total cpu time :   314.8 secs   av.it.:   4.8
      thresh= 1.249E-07 alpha_mix =  0.700 |ddv_scf|^2 =  3.616E-14

      iter #  17 total cpu time :   318.3 secs   av.it.:   5.3
      thresh= 1.902E-08 alpha_mix =  0.700 |ddv_scf|^2 =  7.344E-16

      iter #  18 total cpu time :   321.8 secs   av.it.:   5.4
      thresh= 2.710E-09 alpha_mix =  0.700 |ddv_scf|^2 =  5.139E-16

      iter #  19 total cpu time :   325.2 secs   av.it.:   5.4
      thresh= 2.267E-09 alpha_mix =  0.700 |ddv_scf|^2 =  1.893E-16

      iter #  20 total cpu time :   328.4 secs   av.it.:   5.3
      thresh= 1.376E-09 alpha_mix =  0.700 |ddv_scf|^2 =  6.752E-18

     End of self-consistent calculation

     Convergence has been achieved 


     Representation #   2 mode #   2

     Self-consistent Calculation

      iter #   1 total cpu time :   332.7 secs   av.it.:   5.9
      thresh= 1.000E-02 alpha_mix =  0.700 |ddv_scf|^2 =  4.395E-02

      iter #   2 total cpu time :   336.4 secs   av.it.:   6.7
      thresh= 1.000E-02 alpha_mix =  0.700 |ddv_scf|^2 =  1.412E+02

      iter #   3 total cpu time :   339.9 secs   av.it.:   6.4
      thresh= 1.000E-02 alpha_mix =  0.700 |ddv_scf|^2 =  4.341E-03

      iter #   4 total cpu time :   343.7 secs   av.it.:   4.4
      thresh= 6.589E-03 alpha_mix =  0.700 |ddv_scf|^2 =  2.917E-06

      iter #   5 total cpu time :   347.5 secs   av.it.:   6.5
      thresh= 1.708E-04 alpha_mix =  0.700 |ddv_scf|^2 =  3.334E-04

      iter #   6 total cpu time :   351.2 secs   av.it.:   5.1
      thresh= 1.826E-03 alpha_mix =  0.700 |ddv_scf|^2 =  1.660E-04

      iter #   7 total cpu time :   354.7 secs   av.it.:   5.4
      thresh= 1.289E-03 alpha_mix =  0.700 |ddv_scf|^2 =  2.797E-04

      iter #   8 total cpu time :   358.1 secs   av.it.:   5.2
      thresh= 1.672E-03 alpha_mix =  0.700 |ddv_scf|^2 =  1.782E-04

      iter #   9 total cpu time :   361.5 secs   av.it.:   4.8
      thresh= 1.335E-03 alpha_mix =  0.700 |ddv_scf|^2 =  8.692E-08

      iter #  10 total cpu time :   365.4 secs   av.it.:   6.7
      thresh= 2.948E-05 alpha_mix =  0.700 |ddv_scf|^2 =  1.093E-05

      iter #  11 total cpu time :   368.8 secs   av.it.:   4.8
      thresh= 3.306E-04 alpha_mix =  0.700 |ddv_scf|^2 =  4.604E-08

      iter #  12 total cpu time :   372.3 secs   av.it.:   5.4
      thresh= 2.146E-05 alpha_mix =  0.700 |ddv_scf|^2 =  5.750E-09

      iter #  13 total cpu time :   376.3 secs   av.it.:   5.3
      thresh= 7.583E-06 alpha_mix =  0.700 |ddv_scf|^2 =  1.009E-10

      iter #  14 total cpu time :   379.8 secs   av.it.:   5.6
      thresh= 1.004E-06 alpha_mix =  0.700 |ddv_scf|^2 =  1.479E-10

      iter #  15 total cpu time :   383.4 secs   av.it.:   5.0
      thresh= 1.216E-06 alpha_mix =  0.700 |ddv_scf|^2 =  1.422E-12

      iter #  16 total cpu time :   386.8 secs   av.it.:   4.8
      thresh= 1.192E-07 alpha_mix =  0.700 |ddv_scf|^2 =  2.773E-14

      iter #  17 total cpu time :   390.4 secs   av.it.:   5.3
      thresh= 1.665E-08 alpha_mix =  0.700 |ddv_scf|^2 =  1.086E-15

      iter #  18 total cpu time :   393.9 secs   av.it.:   5.2
      thresh= 3.296E-09 alpha_mix =  0.700 |ddv_scf|^2 =  6.330E-16

      iter #  19 total cpu time :   397.4 secs   av.it.:   5.4
      thresh= 2.516E-09 alpha_mix =  0.700 |ddv_scf|^2 =  2.306E-16

      iter #  20 total cpu time :   400.8 secs   av.it.:   5.3
      thresh= 1.519E-09 alpha_mix =  0.700 |ddv_scf|^2 =  3.008E-18

     End of self-consistent calculation

     Convergence has been achieved 


     Representation #   3 modes #   3   4

     Self-consistent Calculation

      iter #   1 total cpu time :   408.1 secs   av.it.:   5.4
      thresh= 1.000E-02 alpha_mix =  0.700 |ddv_scf|^2 =  1.017E-07

      iter #   2 total cpu time :   415.7 secs   av.it.:   9.4
      thresh= 3.189E-05 alpha_mix =  0.700 |ddv_scf|^2 =  1.146E-08

      iter #   3 total cpu time :   423.6 secs   av.it.:   9.9
      thresh= 1.070E-05 alpha_mix =  0.700 |ddv_scf|^2 =  8.670E-10

      iter #   4 total cpu time :   431.7 secs   av.it.:  10.0
      thresh= 2.944E-06 alpha_mix =  0.700 |ddv_scf|^2 =  1.209E-13

      iter #   5 total cpu time :   440.5 secs   av.it.:   9.6
      thresh= 3.478E-08 alpha_mix =  0.700 |ddv_scf|^2 =  5.992E-15

      iter #   6 total cpu time :   448.2 secs   av.it.:   9.0
      thresh= 7.741E-09 alpha_mix =  0.700 |ddv_scf|^2 =  4.518E-17

     End of self-consistent calculation

     Convergence has been achieved 


     Representation #   4 modes #   5   6

     Self-consistent Calculation

      iter #   1 total cpu time :   456.0 secs   av.it.:   5.4
      thresh= 1.000E-02 alpha_mix =  0.700 |ddv_scf|^2 =  1.190E-07

      iter #   2 total cpu time :   463.5 secs   av.it.:   9.3
      thresh= 3.450E-05 alpha_mix =  0.700 |ddv_scf|^2 =  1.219E-08

      iter #   3 total cpu time :   471.3 secs   av.it.:   9.9
      thresh= 1.104E-05 alpha_mix =  0.700 |ddv_scf|^2 =  1.039E-09

      iter #   4 total cpu time :   479.5 secs   av.it.:  10.0
      thresh= 3.223E-06 alpha_mix =  0.700 |ddv_scf|^2 =  1.885E-13

      iter #   5 total cpu time :   488.0 secs   av.it.:   9.4
      thresh= 4.341E-08 alpha_mix =  0.700 |ddv_scf|^2 =  9.247E-15

      iter #   6 total cpu time :   495.0 secs   av.it.:   8.9
      thresh= 9.616E-09 alpha_mix =  0.700 |ddv_scf|^2 =  4.782E-17

     End of self-consistent calculation

     Convergence has been achieved 
 
     Number of q in the star =    1
     List of q in the star:
          1   0.012500000   0.000000000   0.000000000
     In addition there is the -q list: 
          1  -0.012500000   0.000000000   0.000000000

     Diagonalizing the dynamical matrix

     q = (    0.012500000   0.000000000   0.000000000 ) 

 **************************************************************************
     freq (    1) =      -0.800956 [THz] =     -26.717024 [cm-1]
     freq (    2) =       0.893769 [THz] =      29.812926 [cm-1]
     freq (    3) =       0.893769 [THz] =      29.812926 [cm-1]
     freq (    4) =      14.717733 [THz] =     490.930723 [cm-1]
     freq (    5) =      14.717733 [THz] =     490.930723 [cm-1]
     freq (    6) =      39.603711 [THz] =    1321.037600 [cm-1]
 **************************************************************************

     Mode symmetry, C_4v (4mm)  point group:

     freq (   1-   1) =        -26.7  [cm-1]   --> A_1  G_1 D_1       
     freq (   2-   3) =         29.8  [cm-1]   --> E    G_5 D_5       
     freq (   4-   5) =        490.9  [cm-1]   --> E    G_5 D_5       
     freq (   6-   6) =       1321.0  [cm-1]   --> A_1  G_1 D_1       

     Calculation of q =    0.0250000   0.0000000   0.0000000
 
     G-vector sticks info
     --------------------
     sticks:   dense  smooth     PW     G-vecs:    dense   smooth      PW
     Sum        2927    1445    425               233967    82581   13487
 

     Title: 
     phonons calculation                                                        


     bravais-lattice index     =            0
     lattice parameter (alat)  =       4.8481  a.u.
     unit-cell volume          =    1731.2924 (a.u.)^3
     number of atoms/cell      =            2
     number of atomic types    =            1
     number of electrons       =         8.00
     number of Kohn-Sham states=            4
     kinetic-energy cutoff     =      50.0000  Ry
     charge density cutoff     =     400.0000  Ry
     Exchange-correlation= PBE
                           (   1   4   3   4   0   0   0)

     celldm(1)=   4.848113  celldm(2)=   0.000000  celldm(3)=   0.000000
     celldm(4)=   0.000000  celldm(5)=   0.000000  celldm(6)=   0.000000

     crystal axes: (cart. coord. in units of alat)
               a(1) = (   1.000000   0.000000   0.000000 )  
               a(2) = (   0.000000   3.897859   0.000000 )  
               a(3) = (   0.000000   0.000000   3.897859 )  

     reciprocal axes: (cart. coord. in units 2 pi/alat)
               b(1) = (  1.000000  0.000000  0.000000 )  
               b(2) = (  0.000000  0.256551  0.000000 )  
               b(3) = (  0.000000  0.000000  0.256551 )  


     PseudoPot. # 1 for C  read from file:
     ./pseudo/C.pbe-n-kjpaw_psl.1.0.0.UPF
     MD5 check sum: 6fec8efd722f5d988670a8dc528584a2
     Pseudo is Projector augmented-wave + core cor, Zval =  4.0
     Generated using "atomic" code by A. Dal Corso  v.5.1.2
     Shape of augmentation charge: PSQ
     Using radial grid of 1073 points,  4 beta functions with: 
                l(1) =   0
                l(2) =   0
                l(3) =   1
                l(4) =   1
     Q(r) pseudized with 0 coefficients 


     atomic species   valence    mass     pseudopotential
        C              4.00    12.01070     C ( 1.00)

      8 Sym. Ops. (no inversion) found



   Cartesian axes

     site n.     atom                  positions (alat units)
         1           C   tau(   1) = (   0.0001249   1.9489297   1.9489297  )
         2           C   tau(   2) = (   0.4928489   1.9489297   1.9489297  )

     number of k points=   320

     Number of k-points >= 100: set verbosity='high' to print them.

     Dense  grid:   233967 G-vectors     FFT dimensions: (  32, 125, 125)

     Smooth grid:    82581 G-vectors     FFT dimensions: (  24,  90,  90)

     Estimated max dynamical RAM per process >      78.84 MB

     Estimated total dynamical RAM >       2.16 GB

     Check: negative core charge=   -0.000001

     The potential is recalculated from file :
     ./_ph0/carbyne.q_3/carbyne.save/charge-density


     negative rho (up, down):  1.845E-04 0.000E+00
     Starting wfcs are    8 atomic wfcs
     Checking if some PAW data can be deallocated... 

     Band Structure Calculation
     Davidson diagonalization with overlap

     ethr =  1.25E-10,  avg # of iterations = 10.2

     total cpu time spent up to now is       13.2 secs

     End of band structure calculation

     Number of k-points >= 100: set verbosity='high' to print the bands.

     highest occupied level (ev):    -4.5831

     Writing output data file ./_ph0/carbyne.q_3/carbyne.save/

     phonons calculation                                                        

     bravais-lattice index     =            0
     lattice parameter (alat)  =       4.8481  a.u.
     unit-cell volume          =    1731.2924 (a.u.)^3
     number of atoms/cell      =            2
     number of atomic types    =            1
     kinetic-energy cut-off    =      50.0000  Ry
     charge density cut-off    =     400.0000  Ry
     convergence threshold     =      1.0E-16
     beta                      =       0.7000
     number of iterations used =            4
     Exchange-correlation= PBE
                           (   1   4   3   4   0   0   0)


     celldm(1)=    4.84811  celldm(2)=    0.00000  celldm(3)=    0.00000
     celldm(4)=    0.00000  celldm(5)=    0.00000  celldm(6)=    0.00000

     crystal axes: (cart. coord. in units of alat)
               a(1) = (  1.0000  0.0000  0.0000 )  
               a(2) = (  0.0000  3.8979  0.0000 )  
               a(3) = (  0.0000  0.0000  3.8979 )  

     reciprocal axes: (cart. coord. in units 2 pi/alat)
               b(1) = (  1.0000  0.0000  0.0000 )  
               b(2) = (  0.0000  0.2566  0.0000 )  
               b(3) = (  0.0000  0.0000  0.2566 )  


     Atoms inside the unit cell: 

     Cartesian axes

     site n.  atom      mass           positions (alat units)
        1     C   12.0107   tau(    1) = (    0.00012    1.94893    1.94893  )
        2     C   12.0107   tau(    2) = (    0.49285    1.94893    1.94893  )

     Computing dynamical matrix for 
                    q = (   0.0250000   0.0000000   0.0000000 )
 
      8 Sym.Ops. (no q -> -q+G )


     G cutoff =  238.1473  ( 233967 G-vectors)     FFT grid: ( 32,125,125)
     G cutoff =  119.0736  (  82581 G-vectors)  smooth grid: ( 24, 90, 90)
     number of k points=   320

     PseudoPot. # 1 for C  read from file:
     ./pseudo/C.pbe-n-kjpaw_psl.1.0.0.UPF
     MD5 check sum: 6fec8efd722f5d988670a8dc528584a2
     Pseudo is Projector augmented-wave + core cor, Zval =  4.0
     Generated using "atomic" code by A. Dal Corso  v.5.1.2
     Shape of augmentation charge: PSQ
     Using radial grid of 1073 points,  4 beta functions with: 
                l(1) =   0
                l(2) =   0
                l(3) =   1
                l(4) =   1
     Q(r) pseudized with 0 coefficients 


     Mode symmetry, C_4v (4mm)  point group:


     Atomic displacements:
     There are    4 irreducible representations

     Representation     1      1 modes -  To be done

     Representation     2      1 modes -  To be done

     Representation     3      2 modes -  To be done

     Representation     4      2 modes -  To be done



     Alpha used in Ewald sum =   2.8000

     negative rho (up, down):  1.845E-04 0.000E+00
     PHONON       :  12m44.41s CPU   8m43.34s WALL



     Representation #   1 mode #   1

     Self-consistent Calculation

      iter #   1 total cpu time :   526.6 secs   av.it.:   5.9
      thresh= 1.000E-02 alpha_mix =  0.700 |ddv_scf|^2 =  3.406E-03

      iter #   2 total cpu time :   530.2 secs   av.it.:   7.1
      thresh= 5.836E-03 alpha_mix =  0.700 |ddv_scf|^2 =  3.273E+00

      iter #   3 total cpu time :   533.9 secs   av.it.:   6.2
      thresh= 1.000E-02 alpha_mix =  0.700 |ddv_scf|^2 =  2.323E-05

      iter #   4 total cpu time :   537.9 secs   av.it.:   7.0
      thresh= 4.819E-04 alpha_mix =  0.700 |ddv_scf|^2 =  2.086E-07

      iter #   5 total cpu time :   542.0 secs   av.it.:   8.1
      thresh= 4.567E-05 alpha_mix =  0.700 |ddv_scf|^2 =  1.484E-06

      iter #   6 total cpu time :   545.9 secs   av.it.:   7.2
      thresh= 1.218E-04 alpha_mix =  0.700 |ddv_scf|^2 =  2.162E-05

      iter #   7 total cpu time :   550.0 secs   av.it.:   6.0
      thresh= 4.649E-04 alpha_mix =  0.700 |ddv_scf|^2 =  3.514E-06

      iter #   8 total cpu time :   554.7 secs   av.it.:   5.8
      thresh= 1.874E-04 alpha_mix =  0.700 |ddv_scf|^2 =  1.817E-07

      iter #   9 total cpu time :   558.5 secs   av.it.:   6.0
      thresh= 4.263E-05 alpha_mix =  0.700 |ddv_scf|^2 =  3.082E-08

      iter #  10 total cpu time :   562.2 secs   av.it.:   5.9
      thresh= 1.755E-05 alpha_mix =  0.700 |ddv_scf|^2 =  1.128E-09

      iter #  11 total cpu time :   566.3 secs   av.it.:   6.4
      thresh= 3.359E-06 alpha_mix =  0.700 |ddv_scf|^2 =  1.129E-10

      iter #  12 total cpu time :   571.0 secs   av.it.:   5.8
      thresh= 1.062E-06 alpha_mix =  0.700 |ddv_scf|^2 =  4.273E-12

      iter #  13 total cpu time :   574.7 secs   av.it.:   6.4
      thresh= 2.067E-07 alpha_mix =  0.700 |ddv_scf|^2 =  1.566E-12

      iter #  14 total cpu time :   578.3 secs   av.it.:   6.2
      thresh= 1.251E-07 alpha_mix =  0.700 |ddv_scf|^2 =  2.933E-14

      iter #  15 total cpu time :   582.1 secs   av.it.:   6.1
      thresh= 1.713E-08 alpha_mix =  0.700 |ddv_scf|^2 =  4.093E-16

      iter #  16 total cpu time :   588.0 secs   av.it.:   6.6
      thresh= 2.023E-09 alpha_mix =  0.700 |ddv_scf|^2 =  7.066E-16

      iter #  17 total cpu time :   591.3 secs   av.it.:   5.9
      thresh= 2.658E-09 alpha_mix =  0.700 |ddv_scf|^2 =  9.580E-18

     End of self-consistent calculation

     Convergence has been achieved 


     Representation #   2 mode #   2

     Self-consistent Calculation

      iter #   1 total cpu time :   595.4 secs   av.it.:   5.9
      thresh= 1.000E-02 alpha_mix =  0.700 |ddv_scf|^2 =  3.406E-03

      iter #   2 total cpu time :   599.0 secs   av.it.:   7.1
      thresh= 5.836E-03 alpha_mix =  0.700 |ddv_scf|^2 =  3.273E+00

      iter #   3 total cpu time :   602.5 secs   av.it.:   6.2
      thresh= 1.000E-02 alpha_mix =  0.700 |ddv_scf|^2 =  2.320E-05

      iter #   4 total cpu time :   606.5 secs   av.it.:   7.0
      thresh= 4.816E-04 alpha_mix =  0.700 |ddv_scf|^2 =  2.091E-07

      iter #   5 total cpu time :   611.0 secs   av.it.:   8.1
      thresh= 4.573E-05 alpha_mix =  0.700 |ddv_scf|^2 =  1.513E-06

      iter #   6 total cpu time :   615.6 secs   av.it.:   7.3
      thresh= 1.230E-04 alpha_mix =  0.700 |ddv_scf|^2 =  2.395E-05

      iter #   7 total cpu time :   619.3 secs   av.it.:   6.0
      thresh= 4.893E-04 alpha_mix =  0.700 |ddv_scf|^2 =  3.927E-06

      iter #   8 total cpu time :   623.3 secs   av.it.:   5.8
      thresh= 1.982E-04 alpha_mix =  0.700 |ddv_scf|^2 =  2.010E-07

      iter #   9 total cpu time :   627.1 secs   av.it.:   6.0
      thresh= 4.483E-05 alpha_mix =  0.700 |ddv_scf|^2 =  3.483E-08

      iter #  10 total cpu time :   630.7 secs   av.it.:   5.9
      thresh= 1.866E-05 alpha_mix =  0.700 |ddv_scf|^2 =  1.274E-09

      iter #  11 total cpu time :   634.8 secs   av.it.:   6.4
      thresh= 3.569E-06 alpha_mix =  0.700 |ddv_scf|^2 =  1.297E-10

      iter #  12 total cpu time :   638.7 secs   av.it.:   5.9
      thresh= 1.139E-06 alpha_mix =  0.700 |ddv_scf|^2 =  2.723E-12

      iter #  13 total cpu time :   642.3 secs   av.it.:   6.4
      thresh= 1.650E-07 alpha_mix =  0.700 |ddv_scf|^2 =  1.302E-12

      iter #  14 total cpu time :   646.1 secs   av.it.:   6.2
      thresh= 1.141E-07 alpha_mix =  0.700 |ddv_scf|^2 =  2.272E-14

      iter #  15 total cpu time :   649.7 secs   av.it.:   6.2
      thresh= 1.507E-08 alpha_mix =  0.700 |ddv_scf|^2 =  4.986E-16

      iter #  16 total cpu time :   653.4 secs   av.it.:   6.5
      thresh= 2.233E-09 alpha_mix =  0.700 |ddv_scf|^2 =  8.378E-16

      iter #  17 total cpu time :   656.7 secs   av.it.:   5.9
      thresh= 2.894E-09 alpha_mix =  0.700 |ddv_scf|^2 =  9.610E-18

     End of self-consistent calculation

     Convergence has been achieved 


     Representation #   3 modes #   3   4

     Self-consistent Calculation

      iter #   1 total cpu time :   663.7 secs   av.it.:   5.4
      thresh= 1.000E-02 alpha_mix =  0.700 |ddv_scf|^2 =  1.011E-07

      iter #   2 total cpu time :   671.8 secs   av.it.:   9.4
      thresh= 3.180E-05 alpha_mix =  0.700 |ddv_scf|^2 =  1.132E-08

      iter #   3 total cpu time :   679.6 secs   av.it.:   9.9
      thresh= 1.064E-05 alpha_mix =  0.700 |ddv_scf|^2 =  8.589E-10

      iter #   4 total cpu time :   687.9 secs   av.it.:  10.0
      thresh= 2.931E-06 alpha_mix =  0.700 |ddv_scf|^2 =  1.197E-13

      iter #   5 total cpu time :   697.1 secs   av.it.:   9.6
      thresh= 3.460E-08 alpha_mix =  0.700 |ddv_scf|^2 =  5.935E-15

      iter #   6 total cpu time :   704.3 secs   av.it.:   9.0
      thresh= 7.704E-09 alpha_mix =  0.700 |ddv_scf|^2 =  4.612E-17

     End of self-consistent calculation

     Convergence has been achieved 


     Representation #   4 modes #   5   6

     Self-consistent Calculation

      iter #   1 total cpu time :   715.8 secs   av.it.:   5.4
      thresh= 1.000E-02 alpha_mix =  0.700 |ddv_scf|^2 =  1.184E-07

      iter #   2 total cpu time :   723.5 secs   av.it.:   9.3
      thresh= 3.441E-05 alpha_mix =  0.700 |ddv_scf|^2 =  1.206E-08

      iter #   3 total cpu time :   731.4 secs   av.it.:   9.9
      thresh= 1.098E-05 alpha_mix =  0.700 |ddv_scf|^2 =  1.028E-09

      iter #   4 total cpu time :   739.5 secs   av.it.:  10.0
      thresh= 3.206E-06 alpha_mix =  0.700 |ddv_scf|^2 =  1.850E-13

      iter #   5 total cpu time :   749.8 secs   av.it.:   9.2
      thresh= 4.301E-08 alpha_mix =  0.700 |ddv_scf|^2 =  9.175E-15

      iter #   6 total cpu time :   756.8 secs   av.it.:   8.9
      thresh= 9.579E-09 alpha_mix =  0.700 |ddv_scf|^2 =  4.874E-17

     End of self-consistent calculation

     Convergence has been achieved 
 
     Number of q in the star =    1
     List of q in the star:
          1   0.025000000   0.000000000   0.000000000
     In addition there is the -q list: 
          1  -0.025000000   0.000000000   0.000000000

     Diagonalizing the dynamical matrix

     q = (    0.025000000   0.000000000   0.000000000 ) 

 **************************************************************************
     freq (    1) =       0.893327 [THz] =      29.798188 [cm-1]
     freq (    2) =       0.893327 [THz] =      29.798188 [cm-1]
     freq (    3) =       2.534151 [THz] =      84.530163 [cm-1]
     freq (    4) =      14.716497 [THz] =     490.889508 [cm-1]
     freq (    5) =      14.716497 [THz] =     490.889508 [cm-1]
     freq (    6) =      44.547748 [THz] =    1485.952913 [cm-1]
 **************************************************************************

     Mode symmetry, C_4v (4mm)  point group:

     freq (   1-   2) =         29.8  [cm-1]   --> E    G_5 D_5       
     freq (   3-   3) =         84.5  [cm-1]   --> A_1  G_1 D_1       
     freq (   4-   5) =        490.9  [cm-1]   --> E    G_5 D_5       
     freq (   6-   6) =       1486.0  [cm-1]   --> A_1  G_1 D_1       

     Calculation of q =    0.0375000   0.0000000   0.0000000
 
     G-vector sticks info
     --------------------
     sticks:   dense  smooth     PW     G-vecs:    dense   smooth      PW
     Sum        2927    1445    429               233967    82581   13535
 

     Title: 
     phonons calculation                                                        


     bravais-lattice index     =            0
     lattice parameter (alat)  =       4.8481  a.u.
     unit-cell volume          =    1731.2924 (a.u.)^3
     number of atoms/cell      =            2
     number of atomic types    =            1
     number of electrons       =         8.00
     number of Kohn-Sham states=            4
     kinetic-energy cutoff     =      50.0000  Ry
     charge density cutoff     =     400.0000  Ry
     Exchange-correlation= PBE
                           (   1   4   3   4   0   0   0)

     celldm(1)=   4.848113  celldm(2)=   0.000000  celldm(3)=   0.000000
     celldm(4)=   0.000000  celldm(5)=   0.000000  celldm(6)=   0.000000

     crystal axes: (cart. coord. in units of alat)
               a(1) = (   1.000000   0.000000   0.000000 )  
               a(2) = (   0.000000   3.897859   0.000000 )  
               a(3) = (   0.000000   0.000000   3.897859 )  

     reciprocal axes: (cart. coord. in units 2 pi/alat)
               b(1) = (  1.000000  0.000000  0.000000 )  
               b(2) = (  0.000000  0.256551  0.000000 )  
               b(3) = (  0.000000  0.000000  0.256551 )  


     PseudoPot. # 1 for C  read from file:
     ./pseudo/C.pbe-n-kjpaw_psl.1.0.0.UPF
     MD5 check sum: 6fec8efd722f5d988670a8dc528584a2
     Pseudo is Projector augmented-wave + core cor, Zval =  4.0
     Generated using "atomic" code by A. Dal Corso  v.5.1.2
     Shape of augmentation charge: PSQ
     Using radial grid of 1073 points,  4 beta functions with: 
                l(1) =   0
                l(2) =   0
                l(3) =   1
                l(4) =   1
     Q(r) pseudized with 0 coefficients 


     atomic species   valence    mass     pseudopotential
        C              4.00    12.01070     C ( 1.00)

      8 Sym. Ops. (no inversion) found



   Cartesian axes

     site n.     atom                  positions (alat units)
         1           C   tau(   1) = (   0.0001249   1.9489297   1.9489297  )
         2           C   tau(   2) = (   0.4928489   1.9489297   1.9489297  )

     number of k points=   320

     Number of k-points >= 100: set verbosity='high' to print them.

     Dense  grid:   233967 G-vectors     FFT dimensions: (  32, 125, 125)

     Smooth grid:    82581 G-vectors     FFT dimensions: (  24,  90,  90)

     Estimated max dynamical RAM per process >      78.84 MB

     Estimated total dynamical RAM >       2.16 GB

     Check: negative core charge=   -0.000001

     The potential is recalculated from file :
     ./_ph0/carbyne.q_4/carbyne.save/charge-density


     negative rho (up, down):  1.845E-04 0.000E+00
     Starting wfcs are    8 atomic wfcs
     Checking if some PAW data can be deallocated... 

     Band Structure Calculation
     Davidson diagonalization with overlap

     ethr =  1.25E-10,  avg # of iterations = 10.2

     total cpu time spent up to now is       19.7 secs

     End of band structure calculation

     Number of k-points >= 100: set verbosity='high' to print the bands.

     highest occupied level (ev):    -4.5831

     Writing output data file ./_ph0/carbyne.q_4/carbyne.save/

     phonons calculation                                                        

     bravais-lattice index     =            0
     lattice parameter (alat)  =       4.8481  a.u.
     unit-cell volume          =    1731.2924 (a.u.)^3
     number of atoms/cell      =            2
     number of atomic types    =            1
     kinetic-energy cut-off    =      50.0000  Ry
     charge density cut-off    =     400.0000  Ry
     convergence threshold     =      1.0E-16
     beta                      =       0.7000
     number of iterations used =            4
     Exchange-correlation= PBE
                           (   1   4   3   4   0   0   0)


     celldm(1)=    4.84811  celldm(2)=    0.00000  celldm(3)=    0.00000
     celldm(4)=    0.00000  celldm(5)=    0.00000  celldm(6)=    0.00000

     crystal axes: (cart. coord. in units of alat)
               a(1) = (  1.0000  0.0000  0.0000 )  
               a(2) = (  0.0000  3.8979  0.0000 )  
               a(3) = (  0.0000  0.0000  3.8979 )  

     reciprocal axes: (cart. coord. in units 2 pi/alat)
               b(1) = (  1.0000  0.0000  0.0000 )  
               b(2) = (  0.0000  0.2566  0.0000 )  
               b(3) = (  0.0000  0.0000  0.2566 )  


     Atoms inside the unit cell: 

     Cartesian axes

     site n.  atom      mass           positions (alat units)
        1     C   12.0107   tau(    1) = (    0.00012    1.94893    1.94893  )
        2     C   12.0107   tau(    2) = (    0.49285    1.94893    1.94893  )

     Computing dynamical matrix for 
                    q = (   0.0375000   0.0000000   0.0000000 )
 
      8 Sym.Ops. (no q -> -q+G )


     G cutoff =  238.1473  ( 233967 G-vectors)     FFT grid: ( 32,125,125)
     G cutoff =  119.0736  (  82581 G-vectors)  smooth grid: ( 24, 90, 90)
     number of k points=   320

     PseudoPot. # 1 for C  read from file:
     ./pseudo/C.pbe-n-kjpaw_psl.1.0.0.UPF
     MD5 check sum: 6fec8efd722f5d988670a8dc528584a2
     Pseudo is Projector augmented-wave + core cor, Zval =  4.0
     Generated using "atomic" code by A. Dal Corso  v.5.1.2
     Shape of augmentation charge: PSQ
     Using radial grid of 1073 points,  4 beta functions with: 
                l(1) =   0
                l(2) =   0
                l(3) =   1
                l(4) =   1
     Q(r) pseudized with 0 coefficients 


     Mode symmetry, C_4v (4mm)  point group:


     Atomic displacements:
     There are    4 irreducible representations

     Representation     1      1 modes -  To be done

     Representation     2      1 modes -  To be done

     Representation     3      2 modes -  To be done

     Representation     4      2 modes -  To be done



     Alpha used in Ewald sum =   2.8000

     negative rho (up, down):  1.845E-04 0.000E+00
     PHONON       :  19m18.32s CPU  13m 4.97s WALL



     Representation #   1 mode #   1

     Self-consistent Calculation

      iter #   1 total cpu time :   788.3 secs   av.it.:   5.9
      thresh= 1.000E-02 alpha_mix =  0.700 |ddv_scf|^2 =  5.883E-04

      iter #   2 total cpu time :   792.1 secs   av.it.:   7.7
      thresh= 2.425E-03 alpha_mix =  0.700 |ddv_scf|^2 =  2.089E-01

      iter #   3 total cpu time :   796.0 secs   av.it.:   6.2
      thresh= 1.000E-02 alpha_mix =  0.700 |ddv_scf|^2 =  1.407E-07

      iter #   4 total cpu time :   800.2 secs   av.it.:   9.3
      thresh= 3.751E-05 alpha_mix =  0.700 |ddv_scf|^2 =  6.461E-08

      iter #   5 total cpu time :   804.5 secs   av.it.:   8.8
      thresh= 2.542E-05 alpha_mix =  0.700 |ddv_scf|^2 =  2.229E-08

      iter #   6 total cpu time :   808.9 secs   av.it.:   8.7
      thresh= 1.493E-05 alpha_mix =  0.700 |ddv_scf|^2 =  2.131E-06

      iter #   7 total cpu time :   812.6 secs   av.it.:   6.5
      thresh= 1.460E-04 alpha_mix =  0.700 |ddv_scf|^2 =  8.471E-08

      iter #   8 total cpu time :   816.6 secs   av.it.:   7.0
      thresh= 2.911E-05 alpha_mix =  0.700 |ddv_scf|^2 =  2.382E-08

      iter #   9 total cpu time :   820.2 secs   av.it.:   6.4
      thresh= 1.543E-05 alpha_mix =  0.700 |ddv_scf|^2 =  2.894E-10

      iter #  10 total cpu time :   824.2 secs   av.it.:   7.6
      thresh= 1.701E-06 alpha_mix =  0.700 |ddv_scf|^2 =  2.884E-10

      iter #  11 total cpu time :   828.0 secs   av.it.:   6.6
      thresh= 1.698E-06 alpha_mix =  0.700 |ddv_scf|^2 =  2.516E-12

      iter #  12 total cpu time :   832.4 secs   av.it.:   6.3
      thresh= 1.586E-07 alpha_mix =  0.700 |ddv_scf|^2 =  3.011E-14

      iter #  13 total cpu time :   836.3 secs   av.it.:   6.3
      thresh= 1.735E-08 alpha_mix =  0.700 |ddv_scf|^2 =  5.007E-16

      iter #  14 total cpu time :   839.9 secs   av.it.:   7.4
      thresh= 2.238E-09 alpha_mix =  0.700 |ddv_scf|^2 =  4.547E-18

     End of self-consistent calculation

     Convergence has been achieved 


     Representation #   2 mode #   2

     Self-consistent Calculation

      iter #   1 total cpu time :   844.1 secs   av.it.:   5.9
      thresh= 1.000E-02 alpha_mix =  0.700 |ddv_scf|^2 =  5.882E-04

      iter #   2 total cpu time :   847.9 secs   av.it.:   7.7
      thresh= 2.425E-03 alpha_mix =  0.700 |ddv_scf|^2 =  2.089E-01

      iter #   3 total cpu time :   851.3 secs   av.it.:   6.2
      thresh= 1.000E-02 alpha_mix =  0.700 |ddv_scf|^2 =  1.402E-07

      iter #   4 total cpu time :   855.4 secs   av.it.:   9.3
      thresh= 3.744E-05 alpha_mix =  0.700 |ddv_scf|^2 =  6.486E-08

      iter #   5 total cpu time :   860.1 secs   av.it.:   8.8
      thresh= 2.547E-05 alpha_mix =  0.700 |ddv_scf|^2 =  2.328E-08

      iter #   6 total cpu time :   864.6 secs   av.it.:   8.7
      thresh= 1.526E-05 alpha_mix =  0.700 |ddv_scf|^2 =  2.323E-06

      iter #   7 total cpu time :   868.8 secs   av.it.:   6.5
      thresh= 1.524E-04 alpha_mix =  0.700 |ddv_scf|^2 =  9.261E-08

      iter #   8 total cpu time :   872.5 secs   av.it.:   7.0
      thresh= 3.043E-05 alpha_mix =  0.700 |ddv_scf|^2 =  2.822E-08

      iter #   9 total cpu time :   876.3 secs   av.it.:   6.3
      thresh= 1.680E-05 alpha_mix =  0.700 |ddv_scf|^2 =  3.564E-10

      iter #  10 total cpu time :   880.2 secs   av.it.:   7.6
      thresh= 1.888E-06 alpha_mix =  0.700 |ddv_scf|^2 =  3.434E-10

      iter #  11 total cpu time :   883.9 secs   av.it.:   6.6
      thresh= 1.853E-06 alpha_mix =  0.700 |ddv_scf|^2 =  2.397E-12

      iter #  12 total cpu time :   887.6 secs   av.it.:   6.3
      thresh= 1.548E-07 alpha_mix =  0.700 |ddv_scf|^2 =  3.041E-14

      iter #  13 total cpu time :   891.2 secs   av.it.:   6.3
      thresh= 1.744E-08 alpha_mix =  0.700 |ddv_scf|^2 =  4.307E-16

      iter #  14 total cpu time :   894.8 secs   av.it.:   7.4
      thresh= 2.075E-09 alpha_mix =  0.700 |ddv_scf|^2 =  7.193E-18

     End of self-consistent calculation

     Convergence has been achieved 


     Representation #   3 modes #   3   4

     Self-consistent Calculation

      iter #   1 total cpu time :   901.4 secs   av.it.:   5.4
      thresh= 1.000E-02 alpha_mix =  0.700 |ddv_scf|^2 =  1.001E-07

      iter #   2 total cpu time :   909.2 secs   av.it.:   9.5
      thresh= 3.164E-05 alpha_mix =  0.700 |ddv_scf|^2 =  1.109E-08

      iter #   3 total cpu time :   917.0 secs   av.it.:   9.9
      thresh= 1.053E-05 alpha_mix =  0.700 |ddv_scf|^2 =  8.456E-10

      iter #   4 total cpu time :   925.1 secs   av.it.:  10.0
      thresh= 2.908E-06 alpha_mix =  0.700 |ddv_scf|^2 =  1.181E-13

      iter #   5 total cpu time :   934.1 secs   av.it.:   9.7
      thresh= 3.437E-08 alpha_mix =  0.700 |ddv_scf|^2 =  5.852E-15

      iter #   6 total cpu time :   941.3 secs   av.it.:   9.0
      thresh= 7.650E-09 alpha_mix =  0.700 |ddv_scf|^2 =  4.751E-17

     End of self-consistent calculation

     Convergence has been achieved 


     Representation #   4 modes #   5   6

     Self-consistent Calculation

      iter #   1 total cpu time :   948.8 secs   av.it.:   5.4
      thresh= 1.000E-02 alpha_mix =  0.700 |ddv_scf|^2 =  1.174E-07

      iter #   2 total cpu time :   956.4 secs   av.it.:   9.4
      thresh= 3.427E-05 alpha_mix =  0.700 |ddv_scf|^2 =  1.185E-08

      iter #   3 total cpu time :   964.2 secs   av.it.:   9.9
      thresh= 1.088E-05 alpha_mix =  0.700 |ddv_scf|^2 =  1.010E-09

      iter #   4 total cpu time :   972.3 secs   av.it.:  10.0
      thresh= 3.179E-06 alpha_mix =  0.700 |ddv_scf|^2 =  1.800E-13

      iter #   5 total cpu time :   980.8 secs   av.it.:   9.2
      thresh= 4.243E-08 alpha_mix =  0.700 |ddv_scf|^2 =  9.055E-15

      iter #   6 total cpu time :   987.8 secs   av.it.:   8.8
      thresh= 9.516E-09 alpha_mix =  0.700 |ddv_scf|^2 =  5.012E-17

     End of self-consistent calculation

     Convergence has been achieved 
 
     Number of q in the star =    1
     List of q in the star:
          1   0.037500000   0.000000000   0.000000000
     In addition there is the -q list: 
          1  -0.037500000   0.000000000   0.000000000

     Diagonalizing the dynamical matrix

     q = (    0.037500000   0.000000000   0.000000000 ) 

 **************************************************************************
     freq (    1) =       0.894523 [THz] =      29.838085 [cm-1]
     freq (    2) =       0.894523 [THz] =      29.838085 [cm-1]
     freq (    3) =       4.266320 [THz] =     142.309111 [cm-1]
     freq (    4) =      14.714349 [THz] =     490.817838 [cm-1]
     freq (    5) =      14.714349 [THz] =     490.817838 [cm-1]
     freq (    6) =      48.698285 [THz] =    1624.399940 [cm-1]
 **************************************************************************

     Mode symmetry, C_4v (4mm)  point group:

     freq (   1-   2) =         29.8  [cm-1]   --> E    G_5 D_5       
     freq (   3-   3) =        142.3  [cm-1]   --> A_1  G_1 D_1       
     freq (   4-   5) =        490.8  [cm-1]   --> E    G_5 D_5       
     freq (   6-   6) =       1624.4  [cm-1]   --> A_1  G_1 D_1       

     Calculation of q =    0.0500000   0.0000000   0.0000000
 
     G-vector sticks info
     --------------------
     sticks:   dense  smooth     PW     G-vecs:    dense   smooth      PW
     Sum        2927    1445    433               233967    82581   13671
 

     Title: 
     phonons calculation                                                        


     bravais-lattice index     =            0
     lattice parameter (alat)  =       4.8481  a.u.
     unit-cell volume          =    1731.2924 (a.u.)^3
     number of atoms/cell      =            2
     number of atomic types    =            1
     number of electrons       =         8.00
     number of Kohn-Sham states=            4
     kinetic-energy cutoff     =      50.0000  Ry
     charge density cutoff     =     400.0000  Ry
     Exchange-correlation= PBE
                           (   1   4   3   4   0   0   0)

     celldm(1)=   4.848113  celldm(2)=   0.000000  celldm(3)=   0.000000
     celldm(4)=   0.000000  celldm(5)=   0.000000  celldm(6)=   0.000000

     crystal axes: (cart. coord. in units of alat)
               a(1) = (   1.000000   0.000000   0.000000 )  
               a(2) = (   0.000000   3.897859   0.000000 )  
               a(3) = (   0.000000   0.000000   3.897859 )  

     reciprocal axes: (cart. coord. in units 2 pi/alat)
               b(1) = (  1.000000  0.000000  0.000000 )  
               b(2) = (  0.000000  0.256551  0.000000 )  
               b(3) = (  0.000000  0.000000  0.256551 )  


     PseudoPot. # 1 for C  read from file:
     ./pseudo/C.pbe-n-kjpaw_psl.1.0.0.UPF
     MD5 check sum: 6fec8efd722f5d988670a8dc528584a2
     Pseudo is Projector augmented-wave + core cor, Zval =  4.0
     Generated using "atomic" code by A. Dal Corso  v.5.1.2
     Shape of augmentation charge: PSQ
     Using radial grid of 1073 points,  4 beta functions with: 
                l(1) =   0
                l(2) =   0
                l(3) =   1
                l(4) =   1
     Q(r) pseudized with 0 coefficients 


     atomic species   valence    mass     pseudopotential
        C              4.00    12.01070     C ( 1.00)

      8 Sym. Ops. (no inversion) found



   Cartesian axes

     site n.     atom                  positions (alat units)
         1           C   tau(   1) = (   0.0001249   1.9489297   1.9489297  )
         2           C   tau(   2) = (   0.4928489   1.9489297   1.9489297  )

     number of k points=   320

     Number of k-points >= 100: set verbosity='high' to print them.

     Dense  grid:   233967 G-vectors     FFT dimensions: (  32, 125, 125)

     Smooth grid:    82581 G-vectors     FFT dimensions: (  24,  90,  90)

     Estimated max dynamical RAM per process >      78.84 MB

     Estimated total dynamical RAM >       2.16 GB

     Check: negative core charge=   -0.000001

     The potential is recalculated from file :
     ./_ph0/carbyne.q_5/carbyne.save/charge-density


     negative rho (up, down):  1.845E-04 0.000E+00
     Starting wfcs are    8 atomic wfcs
     Checking if some PAW data can be deallocated... 

     Band Structure Calculation
     Davidson diagonalization with overlap

     ethr =  1.25E-10,  avg # of iterations = 10.2

     total cpu time spent up to now is       26.2 secs

     End of band structure calculation

     Number of k-points >= 100: set verbosity='high' to print the bands.

     highest occupied level (ev):    -4.5831

     Writing output data file ./_ph0/carbyne.q_5/carbyne.save/

     phonons calculation                                                        

     bravais-lattice index     =            0
     lattice parameter (alat)  =       4.8481  a.u.
     unit-cell volume          =    1731.2924 (a.u.)^3
     number of atoms/cell      =            2
     number of atomic types    =            1
     kinetic-energy cut-off    =      50.0000  Ry
     charge density cut-off    =     400.0000  Ry
     convergence threshold     =      1.0E-16
     beta                      =       0.7000
     number of iterations used =            4
     Exchange-correlation= PBE
                           (   1   4   3   4   0   0   0)


     celldm(1)=    4.84811  celldm(2)=    0.00000  celldm(3)=    0.00000
     celldm(4)=    0.00000  celldm(5)=    0.00000  celldm(6)=    0.00000

     crystal axes: (cart. coord. in units of alat)
               a(1) = (  1.0000  0.0000  0.0000 )  
               a(2) = (  0.0000  3.8979  0.0000 )  
               a(3) = (  0.0000  0.0000  3.8979 )  

     reciprocal axes: (cart. coord. in units 2 pi/alat)
               b(1) = (  1.0000  0.0000  0.0000 )  
               b(2) = (  0.0000  0.2566  0.0000 )  
               b(3) = (  0.0000  0.0000  0.2566 )  


     Atoms inside the unit cell: 

     Cartesian axes

     site n.  atom      mass           positions (alat units)
        1     C   12.0107   tau(    1) = (    0.00012    1.94893    1.94893  )
        2     C   12.0107   tau(    2) = (    0.49285    1.94893    1.94893  )

     Computing dynamical matrix for 
                    q = (   0.0500000   0.0000000   0.0000000 )
 
      8 Sym.Ops. (no q -> -q+G )


     G cutoff =  238.1473  ( 233967 G-vectors)     FFT grid: ( 32,125,125)
     G cutoff =  119.0736  (  82581 G-vectors)  smooth grid: ( 24, 90, 90)
     number of k points=   320

     PseudoPot. # 1 for C  read from file:
     ./pseudo/C.pbe-n-kjpaw_psl.1.0.0.UPF
     MD5 check sum: 6fec8efd722f5d988670a8dc528584a2
     Pseudo is Projector augmented-wave + core cor, Zval =  4.0
     Generated using "atomic" code by A. Dal Corso  v.5.1.2
     Shape of augmentation charge: PSQ
     Using radial grid of 1073 points,  4 beta functions with: 
                l(1) =   0
                l(2) =   0
                l(3) =   1
                l(4) =   1
     Q(r) pseudized with 0 coefficients 


     Mode symmetry, C_4v (4mm)  point group:


     Atomic displacements:
     There are    4 irreducible representations

     Representation     1      1 modes -  To be done

     Representation     2      1 modes -  To be done

     Representation     3      2 modes -  To be done

     Representation     4      2 modes -  To be done



     Alpha used in Ewald sum =   2.8000

     negative rho (up, down):  1.845E-04 0.000E+00
     PHONON       :  25m12.64s CPU  16m56.17s WALL



     Representation #   1 mode #   1

     Self-consistent Calculation

      iter #   1 total cpu time :  1019.5 secs   av.it.:   5.9
      thresh= 1.000E-02 alpha_mix =  0.700 |ddv_scf|^2 =  1.653E-04

      iter #   2 total cpu time :  1023.3 secs   av.it.:   8.2
      thresh= 1.286E-03 alpha_mix =  0.700 |ddv_scf|^2 =  2.766E-02

      iter #   3 total cpu time :  1026.8 secs   av.it.:   6.1
      thresh= 1.000E-02 alpha_mix =  0.700 |ddv_scf|^2 =  5.256E-08

      iter #   4 total cpu time :  1031.1 secs   av.it.:   9.9
      thresh= 2.293E-05 alpha_mix =  0.700 |ddv_scf|^2 =  3.901E-08

      iter #   5 total cpu time :  1035.5 secs   av.it.:   9.3
      thresh= 1.975E-05 alpha_mix =  0.700 |ddv_scf|^2 =  3.255E-09

      iter #   6 total cpu time :  1039.8 secs   av.it.:   9.0
      thresh= 5.705E-06 alpha_mix =  0.700 |ddv_scf|^2 =  8.715E-08

      iter #   7 total cpu time :  1043.8 secs   av.it.:   7.3
      thresh= 2.952E-05 alpha_mix =  0.700 |ddv_scf|^2 =  1.628E-08

      iter #   8 total cpu time :  1047.5 secs   av.it.:   7.1
      thresh= 1.276E-05 alpha_mix =  0.700 |ddv_scf|^2 =  1.161E-12

      iter #   9 total cpu time :  1051.8 secs   av.it.:   9.0
      thresh= 1.077E-07 alpha_mix =  0.700 |ddv_scf|^2 =  1.208E-14

      iter #  10 total cpu time :  1055.9 secs   av.it.:   8.9
      thresh= 1.099E-08 alpha_mix =  0.700 |ddv_scf|^2 =  7.581E-14

      iter #  11 total cpu time :  1059.9 secs   av.it.:   7.6
      thresh= 2.753E-08 alpha_mix =  0.700 |ddv_scf|^2 =  8.626E-15

      iter #  12 total cpu time :  1063.9 secs   av.it.:   8.0
      thresh= 9.288E-09 alpha_mix =  0.700 |ddv_scf|^2 =  1.553E-16

      iter #  13 total cpu time :  1067.6 secs   av.it.:   7.7
      thresh= 1.246E-09 alpha_mix =  0.700 |ddv_scf|^2 =  2.379E-17

     End of self-consistent calculation

     Convergence has been achieved 


     Representation #   2 mode #   2

     Self-consistent Calculation

      iter #   1 total cpu time :  1072.0 secs   av.it.:   5.9
      thresh= 1.000E-02 alpha_mix =  0.700 |ddv_scf|^2 =  1.653E-04

      iter #   2 total cpu time :  1075.9 secs   av.it.:   8.2
      thresh= 1.286E-03 alpha_mix =  0.700 |ddv_scf|^2 =  2.766E-02

      iter #   3 total cpu time :  1079.4 secs   av.it.:   6.1
      thresh= 1.000E-02 alpha_mix =  0.700 |ddv_scf|^2 =  5.501E-08

      iter #   4 total cpu time :  1083.5 secs   av.it.:   9.8
      thresh= 2.345E-05 alpha_mix =  0.700 |ddv_scf|^2 =  3.932E-08

      iter #   5 total cpu time :  1088.0 secs   av.it.:   9.4
      thresh= 1.983E-05 alpha_mix =  0.700 |ddv_scf|^2 =  3.408E-09

      iter #   6 total cpu time :  1092.3 secs   av.it.:   9.0
      thresh= 5.838E-06 alpha_mix =  0.700 |ddv_scf|^2 =  8.930E-08

      iter #   7 total cpu time :  1096.2 secs   av.it.:   7.3
      thresh= 2.988E-05 alpha_mix =  0.700 |ddv_scf|^2 =  1.706E-08

      iter #   8 total cpu time :  1100.3 secs   av.it.:   7.1
      thresh= 1.306E-05 alpha_mix =  0.700 |ddv_scf|^2 =  2.017E-12

      iter #   9 total cpu time :  1104.2 secs   av.it.:   8.4
      thresh= 1.420E-07 alpha_mix =  0.700 |ddv_scf|^2 =  3.004E-14

      iter #  10 total cpu time :  1108.3 secs   av.it.:   8.3
      thresh= 1.733E-08 alpha_mix =  0.700 |ddv_scf|^2 =  7.065E-14

      iter #  11 total cpu time :  1112.6 secs   av.it.:   7.7
      thresh= 2.658E-08 alpha_mix =  0.700 |ddv_scf|^2 =  5.182E-15

      iter #  12 total cpu time :  1116.6 secs   av.it.:   8.2
      thresh= 7.198E-09 alpha_mix =  0.700 |ddv_scf|^2 =  2.080E-16

      iter #  13 total cpu time :  1120.1 secs   av.it.:   7.9
      thresh= 1.442E-09 alpha_mix =  0.700 |ddv_scf|^2 =  4.636E-17

     End of self-consistent calculation

     Convergence has been achieved 


     Representation #   3 modes #   3   4

     Self-consistent Calculation

      iter #   1 total cpu time :  1126.9 secs   av.it.:   5.4
      thresh= 1.000E-02 alpha_mix =  0.700 |ddv_scf|^2 =  9.881E-08

      iter #   2 total cpu time :  1134.6 secs   av.it.:   9.6
      thresh= 3.143E-05 alpha_mix =  0.700 |ddv_scf|^2 =  1.080E-08

      iter #   3 total cpu time :  1142.4 secs   av.it.:   9.9
      thresh= 1.039E-05 alpha_mix =  0.700 |ddv_scf|^2 =  8.273E-10

      iter #   4 total cpu time :  1150.4 secs   av.it.:  10.0
      thresh= 2.876E-06 alpha_mix =  0.700 |ddv_scf|^2 =  1.163E-13

      iter #   5 total cpu time :  1159.2 secs   av.it.:   9.8
      thresh= 3.410E-08 alpha_mix =  0.700 |ddv_scf|^2 =  5.787E-15

      iter #   6 total cpu time :  1166.4 secs   av.it.:   9.0
      thresh= 7.607E-09 alpha_mix =  0.700 |ddv_scf|^2 =  4.941E-17

     End of self-consistent calculation

     Convergence has been achieved 


     Representation #   4 modes #   5   6

     Self-consistent Calculation

      iter #   1 total cpu time :  1173.7 secs   av.it.:   5.4
      thresh= 1.000E-02 alpha_mix =  0.700 |ddv_scf|^2 =  1.161E-07

      iter #   2 total cpu time :  1183.2 secs   av.it.:   9.5
      thresh= 3.407E-05 alpha_mix =  0.700 |ddv_scf|^2 =  1.156E-08

      iter #   3 total cpu time :  1192.2 secs   av.it.:   9.9
      thresh= 1.075E-05 alpha_mix =  0.700 |ddv_scf|^2 =  9.862E-10

      iter #   4 total cpu time :  1200.2 secs   av.it.:  10.0
      thresh= 3.140E-06 alpha_mix =  0.700 |ddv_scf|^2 =  1.738E-13

      iter #   5 total cpu time :  1208.7 secs   av.it.:   9.3
      thresh= 4.169E-08 alpha_mix =  0.700 |ddv_scf|^2 =  8.968E-15

      iter #   6 total cpu time :  1215.8 secs   av.it.:   8.7
      thresh= 9.470E-09 alpha_mix =  0.700 |ddv_scf|^2 =  5.203E-17

     End of self-consistent calculation

     Convergence has been achieved 
 
     Number of q in the star =    1
     List of q in the star:
          1   0.050000000   0.000000000   0.000000000
     In addition there is the -q list: 
          1  -0.050000000   0.000000000   0.000000000

     Diagonalizing the dynamical matrix

     q = (    0.050000000   0.000000000   0.000000000 ) 

 **************************************************************************
     freq (    1) =       0.899864 [THz] =      30.016239 [cm-1]
     freq (    2) =       0.899864 [THz] =      30.016239 [cm-1]
     freq (    3) =       5.887587 [THz] =     196.388767 [cm-1]
     freq (    4) =      14.711162 [THz] =     490.711543 [cm-1]
     freq (    5) =      14.711162 [THz] =     490.711543 [cm-1]
     freq (    6) =      51.956864 [THz] =    1733.094424 [cm-1]
 **************************************************************************

     Mode symmetry, C_4v (4mm)  point group:

     freq (   1-   2) =         30.0  [cm-1]   --> E    G_5 D_5       
     freq (   3-   3) =        196.4  [cm-1]   --> A_1  G_1 D_1       
     freq (   4-   5) =        490.7  [cm-1]   --> E    G_5 D_5       
     freq (   6-   6) =       1733.1  [cm-1]   --> A_1  G_1 D_1       

     Calculation of q =    0.0625000   0.0000000   0.0000000
 
     G-vector sticks info
     --------------------
     sticks:   dense  smooth     PW     G-vecs:    dense   smooth      PW
     Sum        2927    1445    443               233967    82581   13825
 

     Title: 
     phonons calculation                                                        


     bravais-lattice index     =            0
     lattice parameter (alat)  =       4.8481  a.u.
     unit-cell volume          =    1731.2924 (a.u.)^3
     number of atoms/cell      =            2
     number of atomic types    =            1
     number of electrons       =         8.00
     number of Kohn-Sham states=            4
     kinetic-energy cutoff     =      50.0000  Ry
     charge density cutoff     =     400.0000  Ry
     Exchange-correlation= PBE
                           (   1   4   3   4   0   0   0)

     celldm(1)=   4.848113  celldm(2)=   0.000000  celldm(3)=   0.000000
     celldm(4)=   0.000000  celldm(5)=   0.000000  celldm(6)=   0.000000

     crystal axes: (cart. coord. in units of alat)
               a(1) = (   1.000000   0.000000   0.000000 )  
               a(2) = (   0.000000   3.897859   0.000000 )  
               a(3) = (   0.000000   0.000000   3.897859 )  

     reciprocal axes: (cart. coord. in units 2 pi/alat)
               b(1) = (  1.000000  0.000000  0.000000 )  
               b(2) = (  0.000000  0.256551  0.000000 )  
               b(3) = (  0.000000  0.000000  0.256551 )  


     PseudoPot. # 1 for C  read from file:
     ./pseudo/C.pbe-n-kjpaw_psl.1.0.0.UPF
     MD5 check sum: 6fec8efd722f5d988670a8dc528584a2
     Pseudo is Projector augmented-wave + core cor, Zval =  4.0
     Generated using "atomic" code by A. Dal Corso  v.5.1.2
     Shape of augmentation charge: PSQ
     Using radial grid of 1073 points,  4 beta functions with: 
                l(1) =   0
                l(2) =   0
                l(3) =   1
                l(4) =   1
     Q(r) pseudized with 0 coefficients 


     atomic species   valence    mass     pseudopotential
        C              4.00    12.01070     C ( 1.00)

      8 Sym. Ops. (no inversion) found



   Cartesian axes

     site n.     atom                  positions (alat units)
         1           C   tau(   1) = (   0.0001249   1.9489297   1.9489297  )
         2           C   tau(   2) = (   0.4928489   1.9489297   1.9489297  )

     number of k points=   320

     Number of k-points >= 100: set verbosity='high' to print them.

     Dense  grid:   233967 G-vectors     FFT dimensions: (  32, 125, 125)

     Smooth grid:    82581 G-vectors     FFT dimensions: (  24,  90,  90)

     Estimated max dynamical RAM per process >      78.84 MB

     Estimated total dynamical RAM >       2.16 GB

     Check: negative core charge=   -0.000001

     The potential is recalculated from file :
     ./_ph0/carbyne.q_6/carbyne.save/charge-density


     negative rho (up, down):  1.845E-04 0.000E+00
     Starting wfcs are    8 atomic wfcs
     Checking if some PAW data can be deallocated... 

     Band Structure Calculation
     Davidson diagonalization with overlap

     ethr =  1.25E-10,  avg # of iterations = 10.2

     total cpu time spent up to now is       34.2 secs

     End of band structure calculation

     Number of k-points >= 100: set verbosity='high' to print the bands.

     highest occupied level (ev):    -4.5831

     Writing output data file ./_ph0/carbyne.q_6/carbyne.save/

     phonons calculation                                                        

     bravais-lattice index     =            0
     lattice parameter (alat)  =       4.8481  a.u.
     unit-cell volume          =    1731.2924 (a.u.)^3
     number of atoms/cell      =            2
     number of atomic types    =            1
     kinetic-energy cut-off    =      50.0000  Ry
     charge density cut-off    =     400.0000  Ry
     convergence threshold     =      1.0E-16
     beta                      =       0.7000
     number of iterations used =            4
     Exchange-correlation= PBE
                           (   1   4   3   4   0   0   0)


     celldm(1)=    4.84811  celldm(2)=    0.00000  celldm(3)=    0.00000
     celldm(4)=    0.00000  celldm(5)=    0.00000  celldm(6)=    0.00000

     crystal axes: (cart. coord. in units of alat)
               a(1) = (  1.0000  0.0000  0.0000 )  
               a(2) = (  0.0000  3.8979  0.0000 )  
               a(3) = (  0.0000  0.0000  3.8979 )  

     reciprocal axes: (cart. coord. in units 2 pi/alat)
               b(1) = (  1.0000  0.0000  0.0000 )  
               b(2) = (  0.0000  0.2566  0.0000 )  
               b(3) = (  0.0000  0.0000  0.2566 )  


     Atoms inside the unit cell: 

     Cartesian axes

     site n.  atom      mass           positions (alat units)
        1     C   12.0107   tau(    1) = (    0.00012    1.94893    1.94893  )
        2     C   12.0107   tau(    2) = (    0.49285    1.94893    1.94893  )

     Computing dynamical matrix for 
                    q = (   0.0625000   0.0000000   0.0000000 )
 
      8 Sym.Ops. (no q -> -q+G )


     G cutoff =  238.1473  ( 233967 G-vectors)     FFT grid: ( 32,125,125)
     G cutoff =  119.0736  (  82581 G-vectors)  smooth grid: ( 24, 90, 90)
     number of k points=   320

     PseudoPot. # 1 for C  read from file:
     ./pseudo/C.pbe-n-kjpaw_psl.1.0.0.UPF
     MD5 check sum: 6fec8efd722f5d988670a8dc528584a2
     Pseudo is Projector augmented-wave + core cor, Zval =  4.0
     Generated using "atomic" code by A. Dal Corso  v.5.1.2
     Shape of augmentation charge: PSQ
     Using radial grid of 1073 points,  4 beta functions with: 
                l(1) =   0
                l(2) =   0
                l(3) =   1
                l(4) =   1
     Q(r) pseudized with 0 coefficients 


     Mode symmetry, C_4v (4mm)  point group:


     Atomic displacements:
     There are    4 irreducible representations

     Representation     1      1 modes -  To be done

     Representation     2      1 modes -  To be done

     Representation     3      2 modes -  To be done

     Representation     4      2 modes -  To be done



     Alpha used in Ewald sum =   2.8000

     negative rho (up, down):  1.845E-04 0.000E+00
     PHONON       :  31m 7.73s CPU  20m45.55s WALL



     Representation #   1 mode #   1

     Self-consistent Calculation

      iter #   1 total cpu time :  1248.9 secs   av.it.:   5.9
      thresh= 1.000E-02 alpha_mix =  0.700 |ddv_scf|^2 =  6.378E-05

      iter #   2 total cpu time :  1252.8 secs   av.it.:   8.5
      thresh= 7.987E-04 alpha_mix =  0.700 |ddv_scf|^2 =  6.051E-03

      iter #   3 total cpu time :  1256.5 secs   av.it.:   6.2
      thresh= 7.779E-03 alpha_mix =  0.700 |ddv_scf|^2 =  6.458E-08

      iter #   4 total cpu time :  1260.8 secs   av.it.:   9.8
      thresh= 2.541E-05 alpha_mix =  0.700 |ddv_scf|^2 =  2.710E-08

      iter #   5 total cpu time :  1265.2 secs   av.it.:   9.5
      thresh= 1.646E-05 alpha_mix =  0.700 |ddv_scf|^2 =  1.646E-09

      iter #   6 total cpu time :  1269.3 secs   av.it.:   8.3
      thresh= 4.058E-06 alpha_mix =  0.700 |ddv_scf|^2 =  1.494E-09

      iter #   7 total cpu time :  1273.3 secs   av.it.:   8.3
      thresh= 3.865E-06 alpha_mix =  0.700 |ddv_scf|^2 =  5.061E-09

      iter #   8 total cpu time :  1277.4 secs   av.it.:   7.3
      thresh= 7.114E-06 alpha_mix =  0.700 |ddv_scf|^2 =  3.700E-12

      iter #   9 total cpu time :  1281.2 secs   av.it.:   7.8
      thresh= 1.924E-07 alpha_mix =  0.700 |ddv_scf|^2 =  1.008E-12

      iter #  10 total cpu time :  1285.0 secs   av.it.:   7.1
      thresh= 1.004E-07 alpha_mix =  0.700 |ddv_scf|^2 =  1.133E-14

      iter #  11 total cpu time :  1289.1 secs   av.it.:   8.2
      thresh= 1.064E-08 alpha_mix =  0.700 |ddv_scf|^2 =  3.741E-15

      iter #  12 total cpu time :  1293.2 secs   av.it.:   8.1
      thresh= 6.117E-09 alpha_mix =  0.700 |ddv_scf|^2 =  3.647E-15

      iter #  13 total cpu time :  1297.8 secs   av.it.:   7.8
      thresh= 6.039E-09 alpha_mix =  0.700 |ddv_scf|^2 =  1.661E-16

      iter #  14 total cpu time :  1301.5 secs   av.it.:   7.8
      thresh= 1.289E-09 alpha_mix =  0.700 |ddv_scf|^2 =  6.966E-19

     End of self-consistent calculation

     Convergence has been achieved 


     Representation #   2 mode #   2

     Self-consistent Calculation

      iter #   1 total cpu time :  1305.5 secs   av.it.:   5.9
      thresh= 1.000E-02 alpha_mix =  0.700 |ddv_scf|^2 =  6.379E-05

      iter #   2 total cpu time :  1309.6 secs   av.it.:   8.5
      thresh= 7.987E-04 alpha_mix =  0.700 |ddv_scf|^2 =  6.050E-03

      iter #   3 total cpu time :  1313.3 secs   av.it.:   6.2
      thresh= 7.778E-03 alpha_mix =  0.700 |ddv_scf|^2 =  6.692E-08

      iter #   4 total cpu time :  1317.4 secs   av.it.:   9.8
[...]

      iter #   6 total cpu time :  8488.8 secs   av.it.:  10.0
      thresh= 2.443E-09 alpha_mix =  0.700 |ddv_scf|^2 =  9.974E-18

     End of self-consistent calculation

     Convergence has been achieved 


     Representation #   4 modes #   5   6

     Self-consistent Calculation

      iter #   1 total cpu time :  8497.0 secs   av.it.:   5.3
      thresh= 1.000E-02 alpha_mix =  0.700 |ddv_scf|^2 =  8.030E-08

      iter #   2 total cpu time :  8504.8 secs   av.it.:   9.6
      thresh= 2.834E-05 alpha_mix =  0.700 |ddv_scf|^2 =  6.980E-09

      iter #   3 total cpu time :  8513.5 secs   av.it.:   8.6
      thresh= 8.355E-06 alpha_mix =  0.700 |ddv_scf|^2 =  6.265E-12

      iter #   4 total cpu time :  8521.9 secs   av.it.:  10.4
      thresh= 2.503E-07 alpha_mix =  0.700 |ddv_scf|^2 =  4.583E-14

      iter #   5 total cpu time :  8530.4 secs   av.it.:   9.8
      thresh= 2.141E-08 alpha_mix =  0.700 |ddv_scf|^2 =  8.354E-16

      iter #   6 total cpu time :  8537.8 secs   av.it.:   9.8
      thresh= 2.890E-09 alpha_mix =  0.700 |ddv_scf|^2 =  2.164E-17

     End of self-consistent calculation

     Convergence has been achieved 
 
     Number of q in the star =    1
     List of q in the star:
          1   0.487500000   0.000000000   0.000000000
     In addition there is the -q list: 
          1  -0.487500000   0.000000000   0.000000000

     Diagonalizing the dynamical matrix

     q = (    0.487500000   0.000000000   0.000000000 ) 

 **************************************************************************
     freq (    1) =       9.951484 [THz] =     331.945783 [cm-1]
     freq (    2) =       9.951484 [THz] =     331.945783 [cm-1]
     freq (    3) =      10.811720 [THz] =     360.640148 [cm-1]
     freq (    4) =      10.811720 [THz] =     360.640148 [cm-1]
     freq (    5) =      51.037198 [THz] =    1702.417683 [cm-1]
     freq (    6) =      56.656090 [THz] =    1889.843727 [cm-1]
 **************************************************************************

     Mode symmetry, C_4v (4mm)  point group:

     freq (   1-   2) =        331.9  [cm-1]   --> E    G_5 D_5       
     freq (   3-   4) =        360.6  [cm-1]   --> E    G_5 D_5       
     freq (   5-   5) =       1702.4  [cm-1]   --> A_1  G_1 D_1       
     freq (   6-   6) =       1889.8  [cm-1]   --> A_1  G_1 D_1       

     Calculation of q =   -0.5000000   0.0000000   0.0000000
 
     G-vector sticks info
     --------------------
     sticks:   dense  smooth     PW     G-vecs:    dense   smooth      PW
     Sum        2927    1445    511               233967    82581   17173
 

     Title: 
     phonons calculation                                                        


     bravais-lattice index     =            0
     lattice parameter (alat)  =       4.8481  a.u.
     unit-cell volume          =    1731.2924 (a.u.)^3
     number of atoms/cell      =            2
     number of atomic types    =            1
     number of electrons       =         8.00
     number of Kohn-Sham states=            4
     kinetic-energy cutoff     =      50.0000  Ry
     charge density cutoff     =     400.0000  Ry
     Exchange-correlation= PBE
                           (   1   4   3   4   0   0   0)

     celldm(1)=   4.848113  celldm(2)=   0.000000  celldm(3)=   0.000000
     celldm(4)=   0.000000  celldm(5)=   0.000000  celldm(6)=   0.000000

     crystal axes: (cart. coord. in units of alat)
               a(1) = (   1.000000   0.000000   0.000000 )  
               a(2) = (   0.000000   3.897859   0.000000 )  
               a(3) = (   0.000000   0.000000   3.897859 )  

     reciprocal axes: (cart. coord. in units 2 pi/alat)
               b(1) = (  1.000000  0.000000  0.000000 )  
               b(2) = (  0.000000  0.256551  0.000000 )  
               b(3) = (  0.000000  0.000000  0.256551 )  


     PseudoPot. # 1 for C  read from file:
     ./pseudo/C.pbe-n-kjpaw_psl.1.0.0.UPF
     MD5 check sum: 6fec8efd722f5d988670a8dc528584a2
     Pseudo is Projector augmented-wave + core cor, Zval =  4.0
     Generated using "atomic" code by A. Dal Corso  v.5.1.2
     Shape of augmentation charge: PSQ
     Using radial grid of 1073 points,  4 beta functions with: 
                l(1) =   0
                l(2) =   0
                l(3) =   1
                l(4) =   1
     Q(r) pseudized with 0 coefficients 


     atomic species   valence    mass     pseudopotential
        C              4.00    12.01070     C ( 1.00)

      8 Sym. Ops. (no inversion) found



   Cartesian axes

     site n.     atom                  positions (alat units)
         1           C   tau(   1) = (   0.0001249   1.9489297   1.9489297  )
         2           C   tau(   2) = (   0.4928489   1.9489297   1.9489297  )

     number of k points=   162

     Number of k-points >= 100: set verbosity='high' to print them.

     Dense  grid:   233967 G-vectors     FFT dimensions: (  32, 125, 125)

     Smooth grid:    82581 G-vectors     FFT dimensions: (  24,  90,  90)

     Estimated max dynamical RAM per process >      78.85 MB

     Estimated total dynamical RAM >       2.16 GB

     Check: negative core charge=   -0.000001

     The potential is recalculated from file :
     ./_ph0/carbyne.q_41/carbyne.save/charge-density


     negative rho (up, down):  1.845E-04 0.000E+00
     Starting wfcs are    8 atomic wfcs
     Checking if some PAW data can be deallocated... 

     Band Structure Calculation
     Davidson diagonalization with overlap

     ethr =  1.25E-10,  avg # of iterations = 10.2

     total cpu time spent up to now is      243.6 secs

     End of band structure calculation

     Number of k-points >= 100: set verbosity='high' to print the bands.

     highest occupied level (ev):    -4.5831

     Writing output data file ./_ph0/carbyne.q_41/carbyne.save/

     phonons calculation                                                        

     bravais-lattice index     =            0
     lattice parameter (alat)  =       4.8481  a.u.
     unit-cell volume          =    1731.2924 (a.u.)^3
     number of atoms/cell      =            2
     number of atomic types    =            1
     kinetic-energy cut-off    =      50.0000  Ry
     charge density cut-off    =     400.0000  Ry
     convergence threshold     =      1.0E-16
     beta                      =       0.7000
     number of iterations used =            4
     Exchange-correlation= PBE
                           (   1   4   3   4   0   0   0)


     celldm(1)=    4.84811  celldm(2)=    0.00000  celldm(3)=    0.00000
     celldm(4)=    0.00000  celldm(5)=    0.00000  celldm(6)=    0.00000

     crystal axes: (cart. coord. in units of alat)
               a(1) = (  1.0000  0.0000  0.0000 )  
               a(2) = (  0.0000  3.8979  0.0000 )  
               a(3) = (  0.0000  0.0000  3.8979 )  

     reciprocal axes: (cart. coord. in units 2 pi/alat)
               b(1) = (  1.0000  0.0000  0.0000 )  
               b(2) = (  0.0000  0.2566  0.0000 )  
               b(3) = (  0.0000  0.0000  0.2566 )  


     Atoms inside the unit cell: 

     Cartesian axes

     site n.  atom      mass           positions (alat units)
        1     C   12.0107   tau(    1) = (    0.00012    1.94893    1.94893  )
        2     C   12.0107   tau(    2) = (    0.49285    1.94893    1.94893  )

     Computing dynamical matrix for 
                    q = (  -0.5000000   0.0000000   0.0000000 )
 
      9 Sym.Ops. (with q -> -q+G )


     G cutoff =  238.1473  ( 233967 G-vectors)     FFT grid: ( 32,125,125)
     G cutoff =  119.0736  (  82581 G-vectors)  smooth grid: ( 24, 90, 90)
     number of k points=   162

     PseudoPot. # 1 for C  read from file:
     ./pseudo/C.pbe-n-kjpaw_psl.1.0.0.UPF
     MD5 check sum: 6fec8efd722f5d988670a8dc528584a2
     Pseudo is Projector augmented-wave + core cor, Zval =  4.0
     Generated using "atomic" code by A. Dal Corso  v.5.1.2
     Shape of augmentation charge: PSQ
     Using radial grid of 1073 points,  4 beta functions with: 
                l(1) =   0
                l(2) =   0
                l(3) =   1
                l(4) =   1
     Q(r) pseudized with 0 coefficients 


     Mode symmetry, C_4v (4mm)  point group:


     Atomic displacements:
     There are    4 irreducible representations

     Representation     1      1 modes -  To be done

     Representation     2      1 modes -  To be done

     Representation     3      2 modes -  To be done

     Representation     4      2 modes -  To be done



     Alpha used in Ewald sum =   2.8000

     negative rho (up, down):  1.845E-04 0.000E+00
     PHONON       :      3h37m CPU      2h22m WALL



     Representation #   1 mode #   1

     Self-consistent Calculation

      iter #   1 total cpu time :  8564.6 secs   av.it.:   6.0
      thresh= 1.000E-02 alpha_mix =  0.700 |ddv_scf|^2 =  7.125E-07

      iter #   2 total cpu time :  8567.5 secs   av.it.:  10.6
      thresh= 8.441E-05 alpha_mix =  0.700 |ddv_scf|^2 =  1.372E-06

      iter #   3 total cpu time :  8574.4 secs   av.it.:  10.1
      thresh= 1.171E-04 alpha_mix =  0.700 |ddv_scf|^2 =  2.001E-08

      iter #   4 total cpu time :  8577.4 secs   av.it.:  10.3
      thresh= 1.415E-05 alpha_mix =  0.700 |ddv_scf|^2 =  1.707E-08

      iter #   5 total cpu time :  8580.6 secs   av.it.:  10.0
      thresh= 1.306E-05 alpha_mix =  0.700 |ddv_scf|^2 =  2.357E-12

      iter #   6 total cpu time :  8584.0 secs   av.it.:  10.1
      thresh= 1.535E-07 alpha_mix =  0.700 |ddv_scf|^2 =  2.072E-14

      iter #   7 total cpu time :  8587.1 secs   av.it.:   9.9
      thresh= 1.439E-08 alpha_mix =  0.700 |ddv_scf|^2 =  6.641E-16

      iter #   8 total cpu time :  8590.0 secs   av.it.:   9.9
      thresh= 2.577E-09 alpha_mix =  0.700 |ddv_scf|^2 =  6.797E-18

     End of self-consistent calculation

     Convergence has been achieved 


     Representation #   2 mode #   2

     Self-consistent Calculation

      iter #   1 total cpu time :  8593.2 secs   av.it.:   6.0
      thresh= 1.000E-02 alpha_mix =  0.700 |ddv_scf|^2 =  7.460E-07

      iter #   2 total cpu time :  8596.7 secs   av.it.:  10.5
      thresh= 8.637E-05 alpha_mix =  0.700 |ddv_scf|^2 =  1.421E-06

      iter #   3 total cpu time :  8599.7 secs   av.it.:  10.1
      thresh= 1.192E-04 alpha_mix =  0.700 |ddv_scf|^2 =  2.147E-08

      iter #   4 total cpu time :  8602.7 secs   av.it.:  10.3
      thresh= 1.465E-05 alpha_mix =  0.700 |ddv_scf|^2 =  1.745E-08

      iter #   5 total cpu time :  8606.7 secs   av.it.:  10.0
      thresh= 1.321E-05 alpha_mix =  0.700 |ddv_scf|^2 =  4.604E-12

      iter #   6 total cpu time :  8609.8 secs   av.it.:  10.1
      thresh= 2.146E-07 alpha_mix =  0.700 |ddv_scf|^2 =  2.060E-14

      iter #   7 total cpu time :  8613.1 secs   av.it.:   9.8
      thresh= 1.435E-08 alpha_mix =  0.700 |ddv_scf|^2 =  8.043E-16

      iter #   8 total cpu time :  8615.8 secs   av.it.:   9.8
      thresh= 2.836E-09 alpha_mix =  0.700 |ddv_scf|^2 =  1.992E-17

     End of self-consistent calculation

     Convergence has been achieved 


     Representation #   3 modes #   3   4

     Self-consistent Calculation

      iter #   1 total cpu time :  8621.1 secs   av.it.:   5.3
      thresh= 1.000E-02 alpha_mix =  0.700 |ddv_scf|^2 =  9.387E-08

      iter #   2 total cpu time :  8629.1 secs   av.it.:   9.5
      thresh= 3.064E-05 alpha_mix =  0.700 |ddv_scf|^2 =  8.181E-09

      iter #   3 total cpu time :  8634.3 secs   av.it.:   8.5
      thresh= 9.045E-06 alpha_mix =  0.700 |ddv_scf|^2 =  6.500E-12

      iter #   4 total cpu time :  8641.5 secs   av.it.:  10.4
      thresh= 2.550E-07 alpha_mix =  0.700 |ddv_scf|^2 =  3.738E-14

      iter #   5 total cpu time :  8648.4 secs   av.it.:  10.0
      thresh= 1.933E-08 alpha_mix =  0.700 |ddv_scf|^2 =  4.610E-16

      iter #   6 total cpu time :  8653.8 secs   av.it.:  10.1
      thresh= 2.147E-09 alpha_mix =  0.700 |ddv_scf|^2 =  9.635E-18

     End of self-consistent calculation

     Convergence has been achieved 


     Representation #   4 modes #   5   6

     Self-consistent Calculation

      iter #   1 total cpu time :  8659.8 secs   av.it.:   5.3
      thresh= 1.000E-02 alpha_mix =  0.700 |ddv_scf|^2 =  1.123E-07

      iter #   2 total cpu time :  8665.0 secs   av.it.:   9.5
      thresh= 3.351E-05 alpha_mix =  0.700 |ddv_scf|^2 =  9.802E-09

      iter #   3 total cpu time :  8670.3 secs   av.it.:   8.5
      thresh= 9.900E-06 alpha_mix =  0.700 |ddv_scf|^2 =  5.964E-12

      iter #   4 total cpu time :  8679.2 secs   av.it.:  10.4
      thresh= 2.442E-07 alpha_mix =  0.700 |ddv_scf|^2 =  4.292E-14

      iter #   5 total cpu time :  8685.8 secs   av.it.:   9.8
      thresh= 2.072E-08 alpha_mix =  0.700 |ddv_scf|^2 =  6.668E-16

      iter #   6 total cpu time :  8691.1 secs   av.it.:   9.9
      thresh= 2.582E-09 alpha_mix =  0.700 |ddv_scf|^2 =  2.224E-17

     End of self-consistent calculation

     Convergence has been achieved 
 
     Number of q in the star =    1
     List of q in the star:
          1  -0.500000000   0.000000000   0.000000000

     Diagonalizing the dynamical matrix

     q = (   -0.500000000   0.000000000   0.000000000 ) 

 **************************************************************************
     freq (    1) =      10.103943 [THz] =     337.031248 [cm-1]
     freq (    2) =      10.103943 [THz] =     337.031248 [cm-1]
     freq (    3) =      10.671390 [THz] =     355.959254 [cm-1]
     freq (    4) =      10.671390 [THz] =     355.959254 [cm-1]
     freq (    5) =      51.220729 [THz] =    1708.539616 [cm-1]
     freq (    6) =      56.502551 [THz] =    1884.722219 [cm-1]
 **************************************************************************

     Mode symmetry, C_4v (4mm)  point group:

     freq (   1-   2) =        337.0  [cm-1]   --> E    G_5 D_5       
     freq (   3-   4) =        356.0  [cm-1]   --> E    G_5 D_5       
     freq (   5-   5) =       1708.5  [cm-1]   --> A_1  G_1 D_1       
     freq (   6-   6) =       1884.7  [cm-1]   --> A_1  G_1 D_1       
 
     init_run     :     57.28s CPU     44.35s WALL (      40 calls)
     electrons    :    351.90s CPU    194.51s WALL (      40 calls)

     Called by init_run:
     wfcinit      :      0.64s CPU      0.76s WALL (      40 calls)
     potinit      :     26.61s CPU     22.94s WALL (      40 calls)
     hinit0       :     19.40s CPU     11.90s WALL (      40 calls)

     Called by electrons:
     c_bands      :    351.79s CPU    194.28s WALL (      40 calls)
     v_of_rho     :     18.44s CPU     11.53s WALL (      41 calls)
     newd         :      2.05s CPU      1.42s WALL (      41 calls)
     PAW_pot      :      2.24s CPU      1.72s WALL (      41 calls)

     Called by c_bands:
     init_us_2    :     31.47s CPU     23.84s WALL (   10236 calls)
     cegterg      :    238.18s CPU    121.14s WALL (     474 calls)

     Called by *egterg:
     cdiaghg      :      3.18s CPU      3.30s WALL (    4802 calls)
     h_psi        :   4944.56s CPU   2522.75s WALL (  108732 calls)
     s_psi        :    230.39s CPU    118.03s WALL (  222946 calls)
     g_psi        :      1.53s CPU      0.77s WALL (    4328 calls)

     Called by h_psi:
     h_psi:calbec :    150.66s CPU     77.25s WALL (  108732 calls)
     vloc_psi     :   4616.81s CPU   2353.59s WALL (  108732 calls)
     add_vuspsi   :    139.49s CPU     70.91s WALL (  108732 calls)

     General routines
     calbec       :    304.35s CPU    166.52s WALL (  245116 calls)
     fft          :    272.66s CPU    249.15s WALL (   34937 calls)
     ffts         :     23.48s CPU     15.91s WALL (    6702 calls)
     fftw         :   4381.16s CPU   2251.91s WALL (  991382 calls)
     interpolate  :     76.79s CPU     73.63s WALL (    4014 calls)
     davcio       :     53.74s CPU    382.08s WALL (   64041 calls)
 
     Parallel routines
 
     PHONON       :      3h41m CPU      2h24m WALL

     INITIALIZATION: 
     phq_setup    :     31.86s CPU     23.59s WALL (      41 calls)
     phq_init     :    969.80s CPU    792.76s WALL (      41 calls)
 
     phq_init     :    969.80s CPU    792.76s WALL (      41 calls)
     set_drhoc    :    180.19s CPU    180.32s WALL (     123 calls)
     init_vloc    :      3.27s CPU      2.59s WALL (      41 calls)
     init_us_1    :      8.36s CPU      5.11s WALL (      41 calls)
     newd         :      2.05s CPU      1.42s WALL (      41 calls)
     dvanqq       :    439.65s CPU    364.89s WALL (      41 calls)
     drho         :    251.77s CPU    152.46s WALL (      41 calls)
 
     DYNAMICAL MATRIX:
     dynmat0      :    171.36s CPU    169.30s WALL (      41 calls)
     phqscf       :  11730.97s CPU   7526.63s WALL (      41 calls)
     dynmatrix    :      4.61s CPU      9.21s WALL (      41 calls)
 
     phqscf       :  11730.97s CPU   7526.63s WALL (      41 calls)
     solve_linter :  11703.01s CPU   7486.38s WALL (     164 calls)
     drhodv       :     25.75s CPU     14.75s WALL (     164 calls)
 
     dynmat0      :    171.36s CPU    169.30s WALL (      41 calls)
     dynmat_us    :      5.95s CPU      4.88s WALL (      41 calls)
     d2ionq       :      4.28s CPU      2.59s WALL (      41 calls)
     dynmatcc     :    137.90s CPU    131.87s WALL (      41 calls)
 
     dynmat_us    :      5.95s CPU      4.88s WALL (      41 calls)
     addusdynmat  :      0.00s CPU      0.00s WALL (      41 calls)
 
     phqscf       :  11730.97s CPU   7526.63s WALL (      41 calls)
     solve_linter :  11703.01s CPU   7486.38s WALL (     164 calls)
 
     solve_linter :  11703.01s CPU   7486.38s WALL (     164 calls)
     dvqpsi_us    :     87.34s CPU     50.48s WALL (    1458 calls)
     ortho        :     37.78s CPU     38.28s WALL (   10749 calls)
     cgsolve      :   5613.50s CPU   2866.40s WALL (   10749 calls)
     incdrhoscf   :    711.95s CPU    364.43s WALL (   10749 calls)
     addusddens   :   1455.78s CPU    765.07s WALL (    1490 calls)
     vpsifft      :    440.30s CPU    246.15s WALL (    9228 calls)
     dv_of_drho   :    459.48s CPU    479.88s WALL (    1845 calls)
     mix_pot      :     62.58s CPU    386.47s WALL (    1334 calls)
     psymdvscf    :    244.47s CPU    251.13s WALL (    1326 calls)
     newdq        :   1486.07s CPU    768.81s WALL (    1334 calls)
     adddvscf     :     21.54s CPU     13.32s WALL (    9291 calls)
     drhodvus     :     29.51s CPU     58.62s WALL (     164 calls)
 
     dvqpsi_us    :     87.34s CPU     50.48s WALL (    1458 calls)
     dvqpsi_us_on :      4.11s CPU      2.54s WALL (    1458 calls)
 
     cgsolve      :   5613.50s CPU   2866.40s WALL (   10749 calls)
     ch_psi       :   5381.89s CPU   2747.31s WALL (  103456 calls)
 
     ch_psi       :   5381.89s CPU   2747.31s WALL (  103456 calls)
     h_psi        :   4944.56s CPU   2522.75s WALL (  108732 calls)
     last         :    484.89s CPU    247.56s WALL (  103456 calls)
 
     h_psi        :   4944.56s CPU   2522.75s WALL (  108732 calls)
     add_vuspsi   :    139.49s CPU     70.91s WALL (  108732 calls)
 
     incdrhoscf   :    711.95s CPU    364.43s WALL (   10749 calls)
     addusdbec    :     16.92s CPU      9.19s WALL (   12189 calls)
 
     drhodvus     :     29.51s CPU     58.62s WALL (     164 calls)
 
      General routines
     calbec       :    304.35s CPU    166.52s WALL (  245116 calls)
     fft          :    272.66s CPU    249.15s WALL (   34937 calls)
     ffts         :     23.48s CPU     15.91s WALL (    6702 calls)
     fftw         :   4381.16s CPU   2251.91s WALL (  991382 calls)
     davcio       :     53.74s CPU    382.08s WALL (   64041 calls)
     write_rec    :     22.35s CPU    159.09s WALL (    1498 calls)
 
 
     PHONON       :      3h41m CPU      2h24m WALL

 
   This run was terminated on:   0: 3:44   9Jul2021            

=------------------------------------------------------------------------------=
   JOB DONE.
=------------------------------------------------------------------------------=
