
     Program BANDS v.6.8 starts on  9Jun2022 at 15:39:20 

     This program is part of the open-source Quantum ESPRESSO suite
     for quantum simulation of materials; please cite
         "P. Giannozzi et al., J. Phys.:Condens. Matter 21 395502 (2009);
         "P. Giannozzi et al., J. Phys.:Condens. Matter 29 465901 (2017);
         "P. Giannozzi et al., J. Chem. Phys. 152 154105 (2020);
          URL http://www.quantum-espresso.org", 
     in publications or presentations arising from this work. More details at
     http://www.quantum-espresso.org/quote

     Parallel version (MPI & OpenMP), running on      64 processor cores
     Number of MPI processes:                32
     Threads/MPI process:                     2

     MPI processes distributed on     1 nodes
     K-points division:     npool     =      32
     39698 MiB available memory on the printing compute node when the environment starts
 

     Reading xml data from directory:

     ./graphene.save/
     file C.pbe-n-kjpaw_psl.1.0.0.UPF: wavefunction(s)  2S 2P renormalized

     IMPORTANT: XC functional enforced from input :
     Exchange-correlation= PBE
                           (   1   4   3   4   0   0   0)
     Any further DFT definition will be discarded
     Please, verify this is what you really want

 
     G-vector sticks info
     --------------------
     sticks:   dense  smooth     PW     G-vecs:    dense   smooth      PW
     Sum         547     265     85                61509    21673    3993
 
     Using Slab Decomposition
 

     Check: negative core charge=   -0.000005

     negative rho (up, down):  2.163E-04 0.000E+00
     Reading collected, re-writing distributed wavefunctions
     high-symmetry point:  0.0000 0.0000 0.0000   x coordinate   0.0000
     high-symmetry point:  0.5000 0.2887 0.0000   x coordinate   0.5774
     high-symmetry point:  0.6667 0.0000 0.0000   x coordinate   0.9107
     high-symmetry point:  0.0000 0.0000 0.0000   x coordinate   1.5774

     Plottable bands (eV) written to file graphene.bands.dat.gnu
     Bands written to file graphene.bands.dat

 **************************************************************************

                    xk=(   0.00000,   0.00000,   0.00000  )

     point group D_6h(6/mmm)
     there are 12 classes
     the character table:

       E     2C6   2C3   C2    3C2'  3C2'' i     2S3   2S6   s_h   3s_d  3s_v 
A_1g   1.00  1.00  1.00  1.00  1.00  1.00  1.00  1.00  1.00  1.00  1.00  1.00
A_2g   1.00  1.00  1.00  1.00 -1.00 -1.00  1.00  1.00  1.00  1.00 -1.00 -1.00
B_1g   1.00 -1.00  1.00 -1.00  1.00 -1.00  1.00 -1.00  1.00 -1.00  1.00 -1.00
B_2g   1.00 -1.00  1.00 -1.00 -1.00  1.00  1.00 -1.00  1.00 -1.00 -1.00  1.00
E_1g   2.00  1.00 -1.00 -2.00  0.00  0.00  2.00  1.00 -1.00 -2.00  0.00  0.00
E_2g   2.00 -1.00 -1.00  2.00  0.00  0.00  2.00 -1.00 -1.00  2.00  0.00  0.00
A_1u   1.00  1.00  1.00  1.00  1.00  1.00 -1.00 -1.00 -1.00 -1.00 -1.00 -1.00
A_2u   1.00  1.00  1.00  1.00 -1.00 -1.00 -1.00 -1.00 -1.00 -1.00  1.00  1.00
B_1u   1.00 -1.00  1.00 -1.00  1.00 -1.00 -1.00  1.00 -1.00  1.00 -1.00  1.00
B_2u   1.00 -1.00  1.00 -1.00 -1.00  1.00 -1.00  1.00 -1.00  1.00  1.00 -1.00
E_1u   2.00  1.00 -1.00 -2.00  0.00  0.00 -2.00 -1.00  1.00  2.00  0.00  0.00
E_2u   2.00 -1.00 -1.00  2.00  0.00  0.00 -2.00  1.00  1.00 -2.00  0.00  0.00

     the symmetry operations in each class and the name of the first element:

     E        1
                                                                 
     2C6      5    6
                                                                 
     2C3      7    8
                                                                 
     C2       2
                                                                 
     3C2'     4   12   11
                                                                 
     3C2''    3    9   10
                                                                 
     i       13
                                                                 
     2S3     17   18
                                                                 
     2S6     19   20
                                                                 
     s_h     14
                                                                 
     3s_d    16   24   23
                                                                 
     3s_v    15   21   22
                                                                 

     Band symmetry, D_6h(6/mmm) point group:

     e(  1 -  1) =    -21.24235  eV     1   --> A_1g           
     e(  2 -  2) =     -9.33726  eV     1   --> A_2u           
     e(  3 -  3) =     -4.77787  eV     1   -->   ?
     e(  4 -  4) =     -4.77775  eV     1   -->   ?
     e(  5 -  5) =      1.42005  eV     1   --> A_1g           
     e(  6 -  6) =      2.24513  eV     1   --> A_2u           
     e(  7 -  7) =      2.50539  eV     1   --> A_1g           
     e(  8 -  8) =      4.47620  eV     1   --> A_2u           
     e(  9 -  9) =      5.31311  eV     1   --> A_1g           
     e( 10 - 10) =      6.59746  eV     1   -->   ?
     e( 11 - 11) =      6.59760  eV     1   -->   ?
     e( 12 - 12) =      8.45339  eV     1   --> A_2u           
     e( 13 - 13) =      9.58123  eV     1   --> A_1g           
     e( 14 - 14) =      9.68177  eV     1   --> B_1g           
     e( 15 - 15) =     10.75242  eV     1   --> B_2u           
     e( 16 - 16) =     13.79316  eV     1   --> A_2u           
     e( 17 - 17) =     15.29874  eV     1   --> A_1g           
     e( 18 - 18) =     20.36890  eV     1   --> A_2u           
     e( 19 - 19) =     20.75313  eV     1   --> A_1g           
     e( 20 - 20) =     22.46102  eV     1   --> A_1g           
     e( 21 - 22) =     26.48097  eV     2   --> E_2u           
     e( 23 - 23) =     27.42770  eV     1   --> A_2u           
     e( 24 - 25) =     29.86491  eV     2   --> E_1g           
     e( 26 - 26) =     30.95706  eV     1   --> A_1g           
     e( 27 - 27) =     31.85240  eV     1   --> A_2u           
     e( 28 - 29) =     33.43694  eV     2   --> E_2g           
     e( 30 - 31) =     33.92084  eV     2   --> E_1u           
     e( 32 - 32) =     34.35146  eV     1   --> B_2u           

 **************************************************************************

 **************************************************************************

                    xk=(   0.02500,   0.01443,   0.00000  )

     point group C_2v (mm2) 
     there are  4 classes
     the character table:

       E     C2    s_v   s_v' 
A_1    1.00  1.00  1.00  1.00
A_2    1.00  1.00 -1.00 -1.00
B_1    1.00 -1.00  1.00 -1.00
B_2    1.00 -1.00 -1.00  1.00

     the symmetry operations in each class and the name of the first element:

     E        1
                                                                 
     C2       2
                                                                 
     s_v      3
                                                                 
     s_v'     4
                                                                 

     Band symmetry, C_2v (mm2)  point group:

     e(  1 -  1) =    -21.22758  eV     1   --> A_1  D_1  S_1  
     e(  2 -  2) =     -9.31961  eV     1   --> B_2  D_4  S_4  
     e(  3 -  3) =     -4.83926  eV     1   --> A_1  D_1  S_1  
     e(  4 -  4) =     -4.81024  eV     1   --> B_1  D_3  S_3  
     e(  5 -  5) =      1.44019  eV     1   --> A_1  D_1  S_1  
     e(  6 -  6) =      2.26542  eV     1   --> B_2  D_4  S_4  
     e(  7 -  7) =      2.52573  eV     1   --> A_1  D_1  S_1  
     e(  8 -  8) =      4.49626  eV     1   --> B_2  D_4  S_4  
     e(  9 -  9) =      5.33285  eV     1   --> A_1  D_1  S_1  
     e( 10 - 10) =      6.60707  eV     1   --> A_1  D_1  S_1  
     e( 11 - 11) =      6.66211  eV     1   --> B_1  D_3  S_3  
     e( 12 - 12) =      8.47293  eV     1   --> B_2  D_4  S_4  
     e( 13 - 13) =      9.60154  eV     1   --> A_1  D_1  S_1  
     e( 14 - 14) =      9.62992  eV     1   --> B_2  D_4  S_4  
     e( 15 - 15) =     10.77835  eV     1   --> A_1  D_1  S_1  
     e( 16 - 16) =     13.81127  eV     1   --> B_2  D_4  S_4  
     e( 17 - 17) =     15.31867  eV     1   --> A_1  D_1  S_1  
     e( 18 - 18) =     20.38064  eV     1   --> B_2  D_4  S_4  
     e( 19 - 19) =     20.80185  eV     1   --> A_1  D_1  S_1  
     e( 20 - 20) =     22.48034  eV     1   --> A_1  D_1  S_1  
     e( 21 - 21) =     26.31649  eV     1   --> A_2  D_2  S_2  
     e( 22 - 22) =     26.32666  eV     1   --> B_2  D_4  S_4  
     e( 23 - 23) =     27.33276  eV     1   --> B_2  D_4  S_4  
     e( 24 - 24) =     29.86425  eV     1   --> B_2  D_4  S_4  
     e( 25 - 25) =     30.06512  eV     1   --> A_2  D_2  S_2  
     e( 26 - 26) =     30.97528  eV     1   --> A_1  D_1  S_1  
     e( 27 - 27) =     32.20610  eV     1   --> B_2  D_4  S_4  
     e( 28 - 28) =     32.34385  eV     1   --> A_1  D_1  S_1  
     e( 29 - 29) =     32.86377  eV     1   --> B_1  D_3  S_3  
     e( 30 - 30) =     33.49362  eV     1   --> A_1  D_1  S_1  
     e( 31 - 31) =     33.70791  eV     1   --> B_2  D_4  S_4  
     e( 32 - 32) =     33.72054  eV     1   --> A_1  D_1  S_1  

 **************************************************************************

 **************************************************************************

                    xk=(   0.05000,   0.02887,   0.00000  )

     Band symmetry, C_2v (mm2)  point group:

     e(  1 -  1) =    -21.18334  eV     1   --> A_1  D_1  S_1  
     e(  2 -  2) =     -9.26669  eV     1   --> B_2  D_4  S_4  
     e(  3 -  3) =     -5.01994  eV     1   --> A_1  D_1  S_1  
     e(  4 -  4) =     -4.90505  eV     1   --> B_1  D_3  S_3  
     e(  5 -  5) =      1.50061  eV     1   --> A_1  D_1  S_1  
     e(  6 -  6) =      2.32628  eV     1   --> B_2  D_4  S_4  
     e(  7 -  7) =      2.58675  eV     1   --> A_1  D_1  S_1  
     e(  8 -  8) =      4.55643  eV     1   --> B_2  D_4  S_4  
     e(  9 -  9) =      5.39209  eV     1   --> A_1  D_1  S_1  
     e( 10 - 10) =      6.63134  eV     1   --> A_1  D_1  S_1  
     e( 11 - 11) =      6.85327  eV     1   --> B_1  D_3  S_3  
     e( 12 - 12) =      8.53148  eV     1   --> B_2  D_4  S_4  
     e( 13 - 13) =      9.47619  eV     1   --> B_2  D_4  S_4  
     e( 14 - 14) =      9.66241  eV     1   --> A_1  D_1  S_1  
     e( 15 - 15) =     10.85805  eV     1   --> A_1  D_1  S_1  
     e( 16 - 16) =     13.86546  eV     1   --> B_2  D_4  S_4  
     e( 17 - 17) =     15.37835  eV     1   --> A_1  D_1  S_1  
     e( 18 - 18) =     20.41377  eV     1   --> B_2  D_4  S_4  
     e( 19 - 19) =     20.94460  eV     1   --> A_1  D_1  S_1  
     e( 20 - 20) =     22.53860  eV     1   --> A_1  D_1  S_1  
     e( 21 - 21) =     25.79558  eV     1   --> B_2  D_4  S_4  
     e( 22 - 22) =     25.90801  eV     1   --> A_2  D_2  S_2  
     e( 23 - 23) =     27.27967  eV     1   --> B_2  D_4  S_4  
     e( 24 - 24) =     29.87883  eV     1   --> B_2  D_4  S_4  
     e( 25 - 25) =     30.57777  eV     1   --> A_2  D_2  S_2  
     e( 26 - 26) =     30.89689  eV     1   --> A_1  D_1  S_1  
     e( 27 - 27) =     31.03225  eV     1   --> A_1  D_1  S_1  
     e( 28 - 28) =     32.11637  eV     1   --> A_1  D_1  S_1  
     e( 29 - 29) =     32.13756  eV     1   --> B_1  D_3  S_3  
     e( 30 - 30) =     32.24743  eV     1   --> B_2  D_4  S_4  
     e( 31 - 31) =     32.87824  eV     1   --> A_1  D_1  S_1  
     e( 32 - 32) =     33.07912  eV     1   --> B_2  D_4  S_4  

 **************************************************************************

 **************************************************************************

                    xk=(   0.07500,   0.04330,   0.00000  )

     Band symmetry, C_2v (mm2)  point group:

     e(  1 -  1) =    -21.10963  eV     1   --> A_1  D_1  S_1  
     e(  2 -  2) =     -9.17862  eV     1   --> B_2  D_4  S_4  
     e(  3 -  3) =     -5.30999  eV     1   --> A_1  D_1  S_1  
     e(  4 -  4) =     -5.05522  eV     1   --> B_1  D_3  S_3  
     e(  5 -  5) =      1.60133  eV     1   --> A_1  D_1  S_1  
     e(  6 -  6) =      2.42768  eV     1   --> B_2  D_4  S_4  
     e(  7 -  7) =      2.68846  eV     1   --> A_1  D_1  S_1  
     e(  8 -  8) =      4.65667  eV     1   --> B_2  D_4  S_4  
     e(  9 -  9) =      5.49078  eV     1   --> A_1  D_1  S_1  
     e( 10 - 10) =      6.65975  eV     1   --> A_1  D_1  S_1  
     e( 11 - 11) =      7.16330  eV     1   --> B_1  D_3  S_3  
     e( 12 - 12) =      8.62884  eV     1   --> B_2  D_4  S_4  
     e( 13 - 13) =      9.22581  eV     1   --> B_2  D_4  S_4  
     e( 14 - 14) =      9.76355  eV     1   --> A_1  D_1  S_1  
     e( 15 - 15) =     10.99608  eV     1   --> A_1  D_1  S_1  
     e( 16 - 16) =     13.95520  eV     1   --> B_2  D_4  S_4  
     e( 17 - 17) =     15.47752  eV     1   --> A_1  D_1  S_1  
     e( 18 - 18) =     20.46114  eV     1   --> B_2  D_4  S_4  
     e( 19 - 19) =     21.17083  eV     1   --> A_1  D_1  S_1  
     e( 20 - 20) =     22.63686  eV     1   --> A_1  D_1  S_1  
     e( 21 - 21) =     25.01694  eV     1   --> B_2  D_4  S_4  
     e( 22 - 22) =     25.38666  eV     1   --> A_2  D_2  S_2  
     e( 23 - 23) =     27.36994  eV     1   --> B_2  D_4  S_4  
     e( 24 - 24) =     29.45278  eV     1   --> A_1  D_1  S_1  
     e( 25 - 25) =     29.88995  eV     1   --> B_2  D_4  S_4  
     e( 26 - 26) =     30.61255  eV     1   --> A_1  D_1  S_1  
     e( 27 - 27) =     30.80635  eV     1   --> B_2  D_4  S_4  
     e( 28 - 28) =     31.12159  eV     1   --> A_1  D_1  S_1  
     e( 29 - 29) =     31.25663  eV     1   --> A_2  D_2  S_2  
     e( 30 - 30) =     31.43716  eV     1   --> B_1  D_3  S_3  
     e( 31 - 31) =     32.18566  eV     1   --> A_1  D_1  S_1  
     e( 32 - 32) =     32.86740  eV     1   --> B_2  D_4  S_4  

 **************************************************************************

 **************************************************************************

                    xk=(   0.10000,   0.05774,   0.00000  )

     Band symmetry, C_2v (mm2)  point group:

     e(  1 -  1) =    -21.00654  eV     1   --> A_1  D_1  S_1  
     e(  2 -  2) =     -9.05562  eV     1   --> B_2  D_4  S_4  
     e(  3 -  3) =     -5.69514  eV     1   --> A_1  D_1  S_1  
     e(  4 -  4) =     -5.25065  eV     1   --> B_1  D_3  S_3  
     e(  5 -  5) =      1.74233  eV     1   --> A_1  D_1  S_1  
     e(  6 -  6) =      2.56957  eV     1   --> B_2  D_4  S_4  
     e(  7 -  7) =      2.83087  eV     1   --> A_1  D_1  S_1  
     e(  8 -  8) =      4.79687  eV     1   --> B_2  D_4  S_4  
     e(  9 -  9) =      5.62871  eV     1   --> A_1  D_1  S_1  
     e( 10 - 10) =      6.67960  eV     1   --> A_1  D_1  S_1  
     e( 11 - 11) =      7.58149  eV     1   --> B_1  D_3  S_3  
     e( 12 - 12) =      8.76222  eV     1   --> B_2  D_4  S_4  
     e( 13 - 13) =      8.88915  eV     1   --> B_2  D_4  S_4  
     e( 14 - 14) =      9.90451  eV     1   --> A_1  D_1  S_1  
     e( 15 - 15) =     11.19688  eV     1   --> A_1  D_1  S_1  
     e( 16 - 16) =     14.07962  eV     1   --> B_2  D_4  S_4  
     e( 17 - 17) =     15.61581  eV     1   --> A_1  D_1  S_1  
     e( 18 - 18) =     20.50703  eV     1   --> B_2  D_4  S_4  
     e( 19 - 19) =     21.46151  eV     1   --> A_1  D_1  S_1  
     e( 20 - 20) =     22.77740  eV     1   --> A_1  D_1  S_1  
     e( 21 - 21) =     24.18465  eV     1   --> B_2  D_4  S_4  
     e( 22 - 22) =     24.82921  eV     1   --> A_2  D_2  S_2  
     e( 23 - 23) =     27.51418  eV     1   --> B_2  D_4  S_4  
     e( 24 - 24) =     28.03774  eV     1   --> A_1  D_1  S_1  
     e( 25 - 25) =     29.14450  eV     1   --> A_1  D_1  S_1  
     e( 26 - 26) =     29.25937  eV     1   --> B_2  D_4  S_4  
     e( 27 - 27) =     30.05533  eV     1   --> B_2  D_4  S_4  
     e( 28 - 28) =     30.77203  eV     1   --> B_1  D_3  S_3  
     e( 29 - 29) =     31.24288  eV     1   --> A_1  D_1  S_1  
     e( 30 - 30) =     31.49077  eV     1   --> A_1  D_1  S_1  
     e( 31 - 31) =     31.65807  eV     1   --> B_2  D_4  S_4  
     e( 32 - 32) =     31.90236  eV     1   --> A_1  D_1  S_1  

 **************************************************************************

 **************************************************************************

                    xk=(   0.12500,   0.07217,   0.00000  )

     Band symmetry, C_2v (mm2)  point group:

     e(  1 -  1) =    -20.87418  eV     1   --> A_1  D_1  S_1  
     e(  2 -  2) =     -8.89798  eV     1   --> B_2  D_4  S_4  
     e(  3 -  3) =     -6.15939  eV     1   --> A_1  D_1  S_1  
     e(  4 -  4) =     -5.47998  eV     1   --> B_1  D_3  S_3  
     e(  5 -  5) =      1.92360  eV     1   --> A_1  D_1  S_1  
     e(  6 -  6) =      2.75189  eV     1   --> B_2  D_4  S_4  
     e(  7 -  7) =      3.01397  eV     1   --> A_1  D_1  S_1  
     e(  8 -  8) =      4.97687  eV     1   --> B_2  D_4  S_4  
     e(  9 -  9) =      5.80510  eV     1   --> A_1  D_1  S_1  
     e( 10 - 10) =      6.68137  eV     1   --> A_1  D_1  S_1  
     e( 11 - 11) =      8.09530  eV     1   --> B_1  D_3  S_3  
     e( 12 - 12) =      8.46459  eV     1   --> B_2  D_4  S_4  
     e( 13 - 13) =      8.94242  eV     1   --> B_2  D_4  S_4  
     e( 14 - 14) =     10.08480  eV     1   --> A_1  D_1  S_1  
     e( 15 - 15) =     11.46130  eV     1   --> A_1  D_1  S_1  
     e( 16 - 16) =     14.23740  eV     1   --> B_2  D_4  S_4  
     e( 17 - 17) =     15.79276  eV     1   --> A_1  D_1  S_1  
     e( 18 - 18) =     20.51847  eV     1   --> B_2  D_4  S_4  
     e( 19 - 19) =     21.78522  eV     1   --> A_1  D_1  S_1  
     e( 20 - 20) =     22.96400  eV     1   --> A_1  D_1  S_1  
     e( 21 - 21) =     23.40977  eV     1   --> B_2  D_4  S_4  
     e( 22 - 22) =     24.27166  eV     1   --> A_2  D_2  S_2  
     e( 23 - 23) =     26.66922  eV     1   --> A_1  D_1  S_1  
     e( 24 - 24) =     27.46551  eV     1   --> B_2  D_4  S_4  
     e( 25 - 25) =     27.72227  eV     1   --> A_1  D_1  S_1  
     e( 26 - 26) =     28.10268  eV     1   --> B_2  D_4  S_4  
     e( 27 - 27) =     30.00982  eV     1   --> B_2  D_4  S_4  
     e( 28 - 28) =     30.14446  eV     1   --> B_1  D_3  S_3  
     e( 29 - 29) =     30.39266  eV     1   --> A_1  D_1  S_1  
     e( 30 - 30) =     30.40833  eV     1   --> B_2  D_4  S_4  
     e( 31 - 31) =     30.98941  eV     1   --> A_1  D_1  S_1  
     e( 32 - 32) =     31.42230  eV     1   --> A_1  D_1  S_1  

 **************************************************************************

 **************************************************************************

                    xk=(   0.15000,   0.08660,   0.00000  )

     Band symmetry, C_2v (mm2)  point group:

     e(  1 -  1) =    -20.71266  eV     1   --> A_1  D_1  S_1  
     e(  2 -  2) =     -8.70611  eV     1   --> B_2  D_4  S_4  
     e(  3 -  3) =     -6.68680  eV     1   --> A_1  D_1  S_1  
     e(  4 -  4) =     -5.73208  eV     1   --> B_1  D_3  S_3  
     e(  5 -  5) =      2.14511  eV     1   --> A_1  D_1  S_1  
     e(  6 -  6) =      2.97451  eV     1   --> B_2  D_4  S_4  
     e(  7 -  7) =      3.23777  eV     1   --> A_1  D_1  S_1  
     e(  8 -  8) =      5.19633  eV     1   --> B_2  D_4  S_4  
     e(  9 -  9) =      6.01736  eV     1   --> A_1  D_1  S_1  
     e( 10 - 10) =      6.66241  eV     1   --> A_1  D_1  S_1  
     e( 11 - 11) =      7.97645  eV     1   --> B_2  D_4  S_4  
     e( 12 - 12) =      8.69199  eV     1   --> B_1  D_3  S_3  
     e( 13 - 13) =      9.15540  eV     1   --> B_2  D_4  S_4  
     e( 14 - 14) =     10.30405  eV     1   --> A_1  D_1  S_1  
     e( 15 - 15) =     11.78468  eV     1   --> A_1  D_1  S_1  
     e( 16 - 16) =     14.42657  eV     1   --> B_2  D_4  S_4  
     e( 17 - 17) =     16.00792  eV     1   --> A_1  D_1  S_1  
     e( 18 - 18) =     20.43080  eV     1   --> B_2  D_4  S_4  
     e( 19 - 19) =     22.08779  eV     1   --> A_1  D_1  S_1  
     e( 20 - 20) =     22.78433  eV     1   --> B_2  D_4  S_4  
     e( 21 - 21) =     23.19820  eV     1   --> A_1  D_1  S_1  
     e( 22 - 22) =     23.73153  eV     1   --> A_2  D_2  S_2  
     e( 23 - 23) =     25.37082  eV     1   --> A_1  D_1  S_1  
     e( 24 - 24) =     26.35868  eV     1   --> A_1  D_1  S_1  
     e( 25 - 25) =     26.40071  eV     1   --> B_2  D_4  S_4  
     e( 26 - 26) =     27.80739  eV     1   --> B_2  D_4  S_4  
     e( 27 - 27) =     29.07381  eV     1   --> A_1  D_1  S_1  
     e( 28 - 28) =     29.26439  eV     1   --> B_2  D_4  S_4  
     e( 29 - 29) =     29.55530  eV     1   --> B_1  D_3  S_3  
     e( 30 - 30) =     30.00382  eV     1   --> B_2  D_4  S_4  
     e( 31 - 31) =     30.39132  eV     1   --> A_1  D_1  S_1  
     e( 32 - 32) =     31.07057  eV     1   --> B_1  D_3  S_3  

 **************************************************************************

 **************************************************************************

                    xk=(   0.17500,   0.10104,   0.00000  )

     Band symmetry, C_2v (mm2)  point group:

     e(  1 -  1) =    -20.52214  eV     1   --> A_1  D_1  S_1  
     e(  2 -  2) =     -8.48057  eV     1   --> B_2  D_4  S_4  
     e(  3 -  3) =     -7.26275  eV     1   --> A_1  D_1  S_1  
     e(  4 -  4) =     -5.99682  eV     1   --> B_1  D_3  S_3  
     e(  5 -  5) =      2.40679  eV     1   --> A_1  D_1  S_1  
     e(  6 -  6) =      3.23720  eV     1   --> B_2  D_4  S_4  
     e(  7 -  7) =      3.50223  eV     1   --> A_1  D_1  S_1  
     e(  8 -  8) =      5.45441  eV     1   --> B_2  D_4  S_4  
     e(  9 -  9) =      6.25305  eV     1   --> A_1  D_1  S_1  
     e( 10 - 10) =      6.63541  eV     1   --> A_1  D_1  S_1  
     e( 11 - 11) =      7.42999  eV     1   --> B_2  D_4  S_4  
     e( 12 - 12) =      9.35910  eV     1   --> B_1  D_3  S_3  
     e( 13 - 13) =      9.40680  eV     1   --> B_2  D_4  S_4  
     e( 14 - 14) =     10.56203  eV     1   --> A_1  D_1  S_1  
     e( 15 - 15) =     12.15683  eV     1   --> A_1  D_1  S_1  
     e( 16 - 16) =     14.64407  eV     1   --> B_2  D_4  S_4  
     e( 17 - 17) =     16.26077  eV     1   --> A_1  D_1  S_1  
     e( 18 - 18) =     20.16100  eV     1   --> B_2  D_4  S_4  
     e( 19 - 19) =     22.25246  eV     1   --> A_1  D_1  S_1  
     e( 20 - 20) =     22.39117  eV     1   --> B_2  D_4  S_4  
     e( 21 - 21) =     23.21761  eV     1   --> A_2  D_2  S_2  
     e( 22 - 22) =     23.44315  eV     1   --> A_1  D_1  S_1  
     e( 23 - 23) =     24.22037  eV     1   --> A_1  D_1  S_1  
     e( 24 - 24) =     25.10212  eV     1   --> A_1  D_1  S_1  
     e( 25 - 25) =     25.13409  eV     1   --> B_2  D_4  S_4  
     e( 26 - 26) =     27.18965  eV     1   --> B_2  D_4  S_4  
     e( 27 - 27) =     27.78904  eV     1   --> A_1  D_1  S_1  
     e( 28 - 28) =     28.70602  eV     1   --> B_2  D_4  S_4  
     e( 29 - 29) =     29.00498  eV     1   --> B_1  D_3  S_3  
     e( 30 - 30) =     29.84655  eV     1   --> A_1  D_1  S_1  
     e( 31 - 31) =     29.88624  eV     1   --> B_2  D_4  S_4  
     e( 32 - 32) =     30.51556  eV     1   --> B_1  D_3  S_3  

 **************************************************************************

 **************************************************************************

                    xk=(   0.20000,   0.11547,   0.00000  )

     Band symmetry, C_2v (mm2)  point group:

     e(  1 -  1) =    -20.30286  eV     1   --> A_1  D_1  S_1  
     e(  2 -  2) =     -8.22207  eV     1   --> B_2  D_4  S_4  
     e(  3 -  3) =     -7.87456  eV     1   --> A_1  D_1  S_1  
     e(  4 -  4) =     -6.26548  eV     1   --> B_1  D_3  S_3  
     e(  5 -  5) =      2.70857  eV     1   --> A_1  D_1  S_1  
     e(  6 -  6) =      3.53954  eV     1   --> B_2  D_4  S_4  
     e(  7 -  7) =      3.80731  eV     1   --> A_1  D_1  S_1  
     e(  8 -  8) =      5.74760  eV     1   --> B_2  D_4  S_4  
     e(  9 -  9) =      6.41736  eV     1   --> A_1  D_1  S_1  
     e( 10 - 10) =      6.69910  eV     1   --> A_1  D_1  S_1  
     e( 11 - 11) =      6.83966  eV     1   --> B_2  D_4  S_4  
     e( 12 - 12) =      9.69571  eV     1   --> B_2  D_4  S_4  
     e( 13 - 13) =     10.08519  eV     1   --> B_1  D_3  S_3  
     e( 14 - 14) =     10.85863  eV     1   --> A_1  D_1  S_1  
     e( 15 - 15) =     12.56304  eV     1   --> A_1  D_1  S_1  
     e( 16 - 16) =     14.88488  eV     1   --> B_2  D_4  S_4  
     e( 17 - 17) =     16.55066  eV     1   --> A_1  D_1  S_1  
     e( 18 - 18) =     19.70281  eV     1   --> B_2  D_4  S_4  
     e( 19 - 19) =     21.95758  eV     1   --> A_1  D_1  S_1  
     e( 20 - 20) =     22.19668  eV     1   --> B_2  D_4  S_4  
     e( 21 - 21) =     22.73502  eV     1   --> A_2  D_2  S_2  
     e( 22 - 22) =     23.16882  eV     1   --> A_1  D_1  S_1  
     e( 23 - 23) =     23.66664  eV     1   --> A_1  D_1  S_1  
     e( 24 - 24) =     23.94233  eV     1   --> B_2  D_4  S_4  
     e( 25 - 25) =     24.30544  eV     1   --> A_1  D_1  S_1  
     e( 26 - 26) =     26.16092  eV     1   --> B_2  D_4  S_4  
     e( 27 - 27) =     26.58545  eV     1   --> A_1  D_1  S_1  
     e( 28 - 28) =     28.41926  eV     1   --> B_2  D_4  S_4  
     e( 29 - 29) =     28.49367  eV     1   --> B_1  D_3  S_3  
     e( 30 - 30) =     29.33707  eV     1   --> A_1  D_1  S_1  
     e( 31 - 31) =     29.73613  eV     1   --> B_2  D_4  S_4  
     e( 32 - 32) =     30.00130  eV     1   --> B_1  D_3  S_3  

 **************************************************************************

 **************************************************************************

                    xk=(   0.22500,   0.12990,   0.00000  )

     Band symmetry, C_2v (mm2)  point group:

     e(  1 -  1) =    -20.05507  eV     1   --> A_1  D_1  S_1  
     e(  2 -  2) =     -8.51133  eV     1   --> A_1  D_1  S_1  
     e(  3 -  3) =     -7.93157  eV     1   --> B_2  D_4  S_4  
     e(  4 -  4) =     -6.53085  eV     1   --> B_1  D_3  S_3  
     e(  5 -  5) =      3.05032  eV     1   --> A_1  D_1  S_1  
     e(  6 -  6) =      3.88035  eV     1   --> B_2  D_4  S_4  
     e(  7 -  7) =      4.15290  eV     1   --> A_1  D_1  S_1  
     e(  8 -  8) =      6.00926  eV     1   --> B_2  D_4  S_4  
     e(  9 -  9) =      6.28312  eV     1   --> B_2  D_4  S_4  
     e( 10 - 10) =      6.39048  eV     1   --> A_1  D_1  S_1  
     e( 11 - 11) =      6.97894  eV     1   --> A_1  D_1  S_1  
     e( 12 - 12) =     10.02133  eV     1   --> B_2  D_4  S_4  
     e( 13 - 13) =     10.85933  eV     1   --> B_1  D_3  S_3  
     e( 14 - 14) =     11.19376  eV     1   --> A_1  D_1  S_1  
     e( 15 - 15) =     12.98456  eV     1   --> A_1  D_1  S_1  
     e( 16 - 16) =     15.14028  eV     1   --> B_2  D_4  S_4  
     e( 17 - 17) =     16.87675  eV     1   --> A_1  D_1  S_1  
     e( 18 - 18) =     19.14347  eV     1   --> B_2  D_4  S_4  
     e( 19 - 19) =     21.06798  eV     1   --> A_1  D_1  S_1  
     e( 20 - 20) =     21.91885  eV     1   --> B_2  D_4  S_4  
     e( 21 - 21) =     22.16177  eV     1   --> A_1  D_1  S_1  
     e( 22 - 22) =     22.28649  eV     1   --> A_2  D_2  S_2  
     e( 23 - 23) =     23.00808  eV     1   --> B_2  D_4  S_4  
     e( 24 - 24) =     23.53551  eV     1   --> A_1  D_1  S_1  
     e( 25 - 25) =     24.33892  eV     1   --> A_1  D_1  S_1  
     e( 26 - 26) =     25.11692  eV     1   --> B_2  D_4  S_4  
     e( 27 - 27) =     25.59481  eV     1   --> A_1  D_1  S_1  
     e( 28 - 28) =     27.94902  eV     1   --> B_2  D_4  S_4  
     e( 29 - 29) =     28.02139  eV     1   --> B_1  D_3  S_3  
     e( 30 - 30) =     28.83229  eV     1   --> A_1  D_1  S_1  
     e( 31 - 31) =     29.38491  eV     1   --> B_2  D_4  S_4  
     e( 32 - 32) =     29.46994  eV     1   --> A_1  D_1  S_1  

 **************************************************************************

 **************************************************************************

                    xk=(   0.25000,   0.14434,   0.00000  )

     Band symmetry, C_2v (mm2)  point group:

     e(  1 -  1) =    -19.77907  eV     1   --> A_1  D_1  S_1  
     e(  2 -  2) =     -9.16400  eV     1   --> A_1  D_1  S_1  
     e(  3 -  3) =     -7.61032  eV     1   --> B_2  D_4  S_4  
     e(  4 -  4) =     -6.78698  eV     1   --> B_1  D_3  S_3  
     e(  5 -  5) =      3.43186  eV     1   --> A_1  D_1  S_1  
     e(  6 -  6) =      4.25480  eV     1   --> B_2  D_4  S_4  
     e(  7 -  7) =      4.53883  eV     1   --> A_1  D_1  S_1  
     e(  8 -  8) =      5.51442  eV     1   --> B_2  D_4  S_4  
     e(  9 -  9) =      6.30809  eV     1   --> A_1  D_1  S_1  
     e( 10 - 10) =      6.49970  eV     1   --> B_2  D_4  S_4  
     e( 11 - 11) =      7.34542  eV     1   --> A_1  D_1  S_1  
     e( 12 - 12) =     10.38255  eV     1   --> B_2  D_4  S_4  
     e( 13 - 13) =     11.56722  eV     1   --> A_1  D_1  S_1  
     e( 14 - 14) =     11.67060  eV     1   --> B_1  D_3  S_3  
     e( 15 - 15) =     13.39667  eV     1   --> A_1  D_1  S_1  
     e( 16 - 16) =     15.39362  eV     1   --> B_2  D_4  S_4  
     e( 17 - 17) =     17.23761  eV     1   --> A_1  D_1  S_1  
     e( 18 - 18) =     18.56047  eV     1   --> B_2  D_4  S_4  
     e( 19 - 19) =     20.00118  eV     1   --> A_1  D_1  S_1  
     e( 20 - 20) =     21.01943  eV     1   --> A_1  D_1  S_1  
     e( 21 - 21) =     21.14263  eV     1   --> B_2  D_4  S_4  
     e( 22 - 22) =     21.87409  eV     1   --> A_2  D_2  S_2  
     e( 23 - 23) =     22.56831  eV     1   --> B_2  D_4  S_4  
     e( 24 - 24) =     23.28574  eV     1   --> A_1  D_1  S_1  
     e( 25 - 25) =     24.22881  eV     1   --> A_1  D_1  S_1  
     e( 26 - 26) =     24.25702  eV     1   --> B_2  D_4  S_4  
     e( 27 - 27) =     25.28959  eV     1   --> A_1  D_1  S_1  
     e( 28 - 28) =     27.23963  eV     1   --> B_2  D_4  S_4  
     e( 29 - 29) =     27.58805  eV     1   --> B_1  D_3  S_3  
     e( 30 - 30) =     28.14559  eV     1   --> A_1  D_1  S_1  
     e( 31 - 31) =     28.68189  eV     1   --> A_1  D_1  S_1  
     e( 32 - 32) =     28.86771  eV     1   --> B_2  D_4  S_4  

 **************************************************************************

 **************************************************************************

                    xk=(   0.27500,   0.15877,   0.00000  )

     Band symmetry, C_2v (mm2)  point group:

     e(  1 -  1) =    -19.47532  eV     1   --> A_1  D_1  S_1  
     e(  2 -  2) =     -9.82503  eV     1   --> A_1  D_1  S_1  
     e(  3 -  3) =     -7.26000  eV     1   --> B_2  D_4  S_4  
     e(  4 -  4) =     -7.02916  eV     1   --> B_1  D_3  S_3  
     e(  5 -  5) =      3.85290  eV     1   --> A_1  D_1  S_1  
     e(  6 -  6) =      4.58185  eV     1   --> B_2  D_4  S_4  
     e(  7 -  7) =      4.93398  eV     1   --> B_2  D_4  S_4  
     e(  8 -  8) =      4.96460  eV     1   --> A_1  D_1  S_1  
     e(  9 -  9) =      6.21442  eV     1   --> A_1  D_1  S_1  
     e( 10 - 10) =      6.90862  eV     1   --> B_2  D_4  S_4  
     e( 11 - 11) =      7.76020  eV     1   --> A_1  D_1  S_1  
     e( 12 - 12) =     10.77778  eV     1   --> B_2  D_4  S_4  
     e( 13 - 13) =     11.97866  eV     1   --> A_1  D_1  S_1  
     e( 14 - 14) =     12.50806  eV     1   --> B_1  D_3  S_3  
     e( 15 - 15) =     13.76364  eV     1   --> A_1  D_1  S_1  
     e( 16 - 16) =     15.60982  eV     1   --> B_2  D_4  S_4  
     e( 17 - 17) =     17.62982  eV     1   --> A_1  D_1  S_1  
     e( 18 - 18) =     17.99876  eV     1   --> B_2  D_4  S_4  
     e( 19 - 19) =     18.93768  eV     1   --> A_1  D_1  S_1  
     e( 20 - 20) =     19.90227  eV     1   --> A_1  D_1  S_1  
     e( 21 - 21) =     20.16127  eV     1   --> B_2  D_4  S_4  
     e( 22 - 22) =     21.49897  eV     1   --> A_2  D_2  S_2  
     e( 23 - 23) =     22.07658  eV     1   --> B_2  D_4  S_4  
     e( 24 - 24) =     22.49134  eV     1   --> A_1  D_1  S_1  
     e( 25 - 25) =     23.81713  eV     1   --> B_2  D_4  S_4  
     e( 26 - 26) =     24.19853  eV     1   --> A_1  D_1  S_1  
     e( 27 - 27) =     25.48218  eV     1   --> A_1  D_1  S_1  
     e( 28 - 28) =     26.41800  eV     1   --> B_2  D_4  S_4  
     e( 29 - 29) =     27.19342  eV     1   --> B_1  D_3  S_3  
     e( 30 - 30) =     27.24686  eV     1   --> A_1  D_1  S_1  
     e( 31 - 31) =     28.23335  eV     1   --> A_1  D_1  S_1  
     e( 32 - 32) =     28.40114  eV     1   --> B_2  D_4  S_4  

 **************************************************************************

 **************************************************************************

                    xk=(   0.30000,   0.17321,   0.00000  )

     Band symmetry, C_2v (mm2)  point group:

     e(  1 -  1) =    -19.14429  eV     1   --> A_1  D_1  S_1  
     e(  2 -  2) =    -10.48808  eV     1   --> A_1  D_1  S_1  
     e(  3 -  3) =     -7.25357  eV     1   --> B_1  D_3  S_3  
     e(  4 -  4) =     -6.88293  eV     1   --> B_2  D_4  S_4  
     e(  5 -  5) =      4.09352  eV     1   --> B_2  D_4  S_4  
     e(  6 -  6) =      4.31295  eV     1   --> A_1  D_1  S_1  
     e(  7 -  7) =      5.19234  eV     1   --> B_2  D_4  S_4  
     e(  8 -  8) =      5.42813  eV     1   --> A_1  D_1  S_1  
     e(  9 -  9) =      6.12230  eV     1   --> A_1  D_1  S_1  
     e( 10 - 10) =      7.36234  eV     1   --> B_2  D_4  S_4  
     e( 11 - 11) =      8.21731  eV     1   --> A_1  D_1  S_1  
     e( 12 - 12) =     11.20457  eV     1   --> B_2  D_4  S_4  
     e( 13 - 13) =     12.42747  eV     1   --> A_1  D_1  S_1  
     e( 14 - 14) =     13.35975  eV     1   --> B_1  D_3  S_3  
     e( 15 - 15) =     14.02683  eV     1   --> A_1  D_1  S_1  
     e( 16 - 16) =     15.71029  eV     1   --> B_2  D_4  S_4  
     e( 17 - 17) =     17.50073  eV     1   --> B_2  D_4  S_4  
     e( 18 - 18) =     17.88504  eV     1   --> A_1  D_1  S_1  
     e( 19 - 19) =     18.08542  eV     1   --> A_1  D_1  S_1  
     e( 20 - 20) =     18.87172  eV     1   --> A_1  D_1  S_1  
     e( 21 - 21) =     19.22793  eV     1   --> B_2  D_4  S_4  
     e( 22 - 22) =     21.16197  eV     1   --> A_2  D_2  S_2  
     e( 23 - 23) =     21.33966  eV     1   --> B_2  D_4  S_4  
     e( 24 - 24) =     21.52078  eV     1   --> A_1  D_1  S_1  
     e( 25 - 25) =     23.69530  eV     1   --> B_2  D_4  S_4  
     e( 26 - 26) =     24.20962  eV     1   --> A_1  D_1  S_1  
     e( 27 - 27) =     25.55066  eV     1   --> A_1  D_1  S_1  
     e( 28 - 28) =     25.67304  eV     1   --> B_2  D_4  S_4  
     e( 29 - 29) =     26.60875  eV     1   --> A_1  D_1  S_1  
     e( 30 - 30) =     26.83719  eV     1   --> B_1  D_3  S_3  
     e( 31 - 31) =     27.90127  eV     1   --> A_1  D_1  S_1  
     e( 32 - 32) =     27.98933  eV     1   --> B_2  D_4  S_4  

 **************************************************************************

 **************************************************************************

                    xk=(   0.32500,   0.18764,   0.00000  )

     Band symmetry, C_2v (mm2)  point group:

     e(  1 -  1) =    -18.78658  eV     1   --> A_1  D_1  S_1  
     e(  2 -  2) =    -11.14781  eV     1   --> A_1  D_1  S_1  
     e(  3 -  3) =     -7.45720  eV     1   --> B_1  D_3  S_3  
     e(  4 -  4) =     -6.48236  eV     1   --> B_2  D_4  S_4  
     e(  5 -  5) =      3.41077  eV     1   --> B_2  D_4  S_4  
     e(  6 -  6) =      4.81075  eV     1   --> A_1  D_1  S_1  
     e(  7 -  7) =      5.68267  eV     1   --> B_2  D_4  S_4  
     e(  8 -  8) =      5.89377  eV     1   --> A_1  D_1  S_1  
     e(  9 -  9) =      6.07373  eV     1   --> A_1  D_1  S_1  
     e( 10 - 10) =      7.85554  eV     1   --> B_2  D_4  S_4  
     e( 11 - 11) =      8.71495  eV     1   --> A_1  D_1  S_1  
     e( 12 - 12) =     11.65881  eV     1   --> B_2  D_4  S_4  
     e( 13 - 13) =     12.91247  eV     1   --> A_1  D_1  S_1  
     e( 14 - 14) =     14.09188  eV     1   --> A_1  D_1  S_1  
     e( 15 - 15) =     14.21152  eV     1   --> B_1  D_3  S_3  
     e( 16 - 16) =     15.55741  eV     1   --> B_2  D_4  S_4  
     e( 17 - 17) =     16.95460  eV     1   --> A_1  D_1  S_1  
     e( 18 - 18) =     17.10613  eV     1   --> B_2  D_4  S_4  
     e( 19 - 19) =     17.95368  eV     1   --> A_1  D_1  S_1  
     e( 20 - 20) =     18.45032  eV     1   --> B_2  D_4  S_4  
     e( 21 - 21) =     18.54095  eV     1   --> A_1  D_1  S_1  
     e( 22 - 22) =     20.58008  eV     1   --> A_1  D_1  S_1  
     e( 23 - 23) =     20.58683  eV     1   --> B_2  D_4  S_4  
     e( 24 - 24) =     20.86375  eV     1   --> A_2  D_2  S_2  
     e( 25 - 25) =     23.44977  eV     1   --> B_2  D_4  S_4  
     e( 26 - 26) =     23.97444  eV     1   --> A_1  D_1  S_1  
     e( 27 - 27) =     25.25939  eV     1   --> B_2  D_4  S_4  
     e( 28 - 28) =     25.26963  eV     1   --> A_1  D_1  S_1  
     e( 29 - 29) =     26.51894  eV     1   --> B_1  D_3  S_3  
     e( 30 - 30) =     26.57076  eV     1   --> A_1  D_1  S_1  
     e( 31 - 31) =     27.59900  eV     1   --> B_2  D_4  S_4  
     e( 32 - 32) =     27.64901  eV     1   --> A_1  D_1  S_1  

 **************************************************************************

 **************************************************************************

                    xk=(   0.35000,   0.20207,   0.00000  )

     Band symmetry, C_2v (mm2)  point group:

     e(  1 -  1) =    -18.40308  eV     1   --> A_1  D_1  S_1  
     e(  2 -  2) =    -11.79956  eV     1   --> A_1  D_1  S_1  
     e(  3 -  3) =     -7.63766  eV     1   --> B_1  D_3  S_3  
     e(  4 -  4) =     -6.06309  eV     1   --> B_2  D_4  S_4  
     e(  5 -  5) =      2.72804  eV     1   --> B_2  D_4  S_4  
     e(  6 -  6) =      5.34046  eV     1   --> A_1  D_1  S_1  
     e(  7 -  7) =      5.93219  eV     1   --> A_1  D_1  S_1  
     e(  8 -  8) =      6.22148  eV     1   --> B_2  D_4  S_4  
     e(  9 -  9) =      6.50711  eV     1   --> A_1  D_1  S_1  
     e( 10 - 10) =      8.38649  eV     1   --> B_2  D_4  S_4  
     e( 11 - 11) =      9.25218  eV     1   --> A_1  D_1  S_1  
     e( 12 - 12) =     12.13241  eV     1   --> B_2  D_4  S_4  
     e( 13 - 13) =     13.42755  eV     1   --> A_1  D_1  S_1  
     e( 14 - 14) =     13.86160  eV     1   --> A_1  D_1  S_1  
     e( 15 - 15) =     15.04652  eV     1   --> B_1  D_3  S_3  
     e( 16 - 16) =     15.09202  eV     1   --> B_2  D_4  S_4  
     e( 17 - 17) =     16.02030  eV     1   --> A_1  D_1  S_1  
     e( 18 - 18) =     16.70033  eV     1   --> B_2  D_4  S_4  
     e( 19 - 19) =     17.31179  eV     1   --> A_1  D_1  S_1  
     e( 20 - 20) =     17.94660  eV     1   --> B_2  D_4  S_4  
     e( 21 - 21) =     18.97994  eV     1   --> A_1  D_1  S_1  
     e( 22 - 22) =     19.77378  eV     1   --> A_1  D_1  S_1  
     e( 23 - 23) =     19.97125  eV     1   --> B_2  D_4  S_4  
     e( 24 - 24) =     20.60468  eV     1   --> A_2  D_2  S_2  
     e( 25 - 25) =     22.89666  eV     1   --> B_2  D_4  S_4  
     e( 26 - 26) =     23.36891  eV     1   --> A_1  D_1  S_1  
     e( 27 - 27) =     25.08960  eV     1   --> A_1  D_1  S_1  
     e( 28 - 28) =     25.27459  eV     1   --> B_2  D_4  S_4  
     e( 29 - 29) =     26.23820  eV     1   --> B_1  D_3  S_3  
     e( 30 - 30) =     26.70461  eV     1   --> A_1  D_1  S_1  
     e( 31 - 31) =     27.19702  eV     1   --> B_2  D_4  S_4  
     e( 32 - 32) =     27.51611  eV     1   --> A_1  D_1  S_1  

 **************************************************************************

 **************************************************************************

                    xk=(   0.37500,   0.21651,   0.00000  )

     Band symmetry, C_2v (mm2)  point group:

     e(  1 -  1) =    -17.99512  eV     1   --> A_1  D_1  S_1  
     e(  2 -  2) =    -12.43900  eV     1   --> A_1  D_1  S_1  
     e(  3 -  3) =     -7.79309  eV     1   --> B_1  D_3  S_3  
     e(  4 -  4) =     -5.63245  eV     1   --> B_2  D_4  S_4  
     e(  5 -  5) =      2.06484  eV     1   --> B_2  D_4  S_4  
     e(  6 -  6) =      5.77135  eV     1   --> A_1  D_1  S_1  
     e(  7 -  7) =      6.00871  eV     1   --> A_1  D_1  S_1  
     e(  8 -  8) =      6.80117  eV     1   --> B_2  D_4  S_4  
     e(  9 -  9) =      7.09003  eV     1   --> A_1  D_1  S_1  
     e( 10 - 10) =      8.95371  eV     1   --> B_2  D_4  S_4  
     e( 11 - 11) =      9.82824  eV     1   --> A_1  D_1  S_1  
     e( 12 - 12) =     12.60395  eV     1   --> B_2  D_4  S_4  
     e( 13 - 13) =     13.30888  eV     1   --> A_1  D_1  S_1  
     e( 14 - 14) =     14.00030  eV     1   --> A_1  D_1  S_1  
     e( 15 - 15) =     14.43524  eV     1   --> B_2  D_4  S_4  
     e( 16 - 16) =     15.07770  eV     1   --> A_1  D_1  S_1  
     e( 17 - 17) =     15.84367  eV     1   --> B_1  D_3  S_3  
     e( 18 - 18) =     16.13134  eV     1   --> B_2  D_4  S_4  
     e( 19 - 19) =     16.81700  eV     1   --> A_1  D_1  S_1  
     e( 20 - 20) =     17.66885  eV     1   --> B_2  D_4  S_4  
     e( 21 - 21) =     19.01466  eV     1   --> A_1  D_1  S_1  
     e( 22 - 22) =     19.59144  eV     1   --> B_2  D_4  S_4  
     e( 23 - 23) =     19.59929  eV     1   --> A_1  D_1  S_1  
     e( 24 - 24) =     20.38509  eV     1   --> A_2  D_2  S_2  
     e( 25 - 25) =     22.24713  eV     1   --> B_2  D_4  S_4  
     e( 26 - 26) =     22.62493  eV     1   --> A_1  D_1  S_1  
     e( 27 - 27) =     24.99962  eV     1   --> A_1  D_1  S_1  
     e( 28 - 28) =     25.45496  eV     1   --> B_2  D_4  S_4  
     e( 29 - 29) =     25.99466  eV     1   --> B_1  D_3  S_3  
     e( 30 - 30) =     26.69866  eV     1   --> A_1  D_1  S_1  
     e( 31 - 31) =     26.78296  eV     1   --> B_2  D_4  S_4  
     e( 32 - 32) =     27.53398  eV     1   --> A_1  D_1  S_1  

 **************************************************************************

 **************************************************************************

                    xk=(   0.40000,   0.23094,   0.00000  )

     Band symmetry, C_2v (mm2)  point group:

     e(  1 -  1) =    -17.56486  eV     1   --> A_1  D_1  S_1  
     e(  2 -  2) =    -13.06161  eV     1   --> A_1  D_1  S_1  
     e(  3 -  3) =     -7.92204  eV     1   --> B_1  D_3  S_3  
     e(  4 -  4) =     -5.20215  eV     1   --> B_2  D_4  S_4  
     e(  5 -  5) =      1.43831  eV     1   --> B_2  D_4  S_4  
     e(  6 -  6) =      5.76168  eV     1   --> A_1  D_1  S_1  
     e(  7 -  7) =      6.57130  eV     1   --> A_1  D_1  S_1  
     e(  8 -  8) =      7.41968  eV     1   --> B_2  D_4  S_4  
     e(  9 -  9) =      7.71748  eV     1   --> A_1  D_1  S_1  
     e( 10 - 10) =      9.55515  eV     1   --> B_2  D_4  S_4  
     e( 11 - 11) =     10.44220  eV     1   --> A_1  D_1  S_1  
     e( 12 - 12) =     12.59500  eV     1   --> A_1  D_1  S_1  
     e( 13 - 13) =     12.95830  eV     1   --> B_2  D_4  S_4  
     e( 14 - 14) =     13.79517  eV     1   --> B_2  D_4  S_4  
     e( 15 - 15) =     14.13393  eV     1   --> A_1  D_1  S_1  
     e( 16 - 16) =     14.58591  eV     1   --> A_1  D_1  S_1  
     e( 17 - 17) =     15.47259  eV     1   --> B_2  D_4  S_4  
     e( 18 - 18) =     16.26077  eV     1   --> A_1  D_1  S_1  
     e( 19 - 19) =     16.57605  eV     1   --> B_1  D_3  S_3  
     e( 20 - 20) =     17.40520  eV     1   --> B_2  D_4  S_4  
     e( 21 - 21) =     18.68396  eV     1   --> A_1  D_1  S_1  
     e( 22 - 22) =     19.43095  eV     1   --> B_2  D_4  S_4  
     e( 23 - 23) =     20.03528  eV     1   --> A_1  D_1  S_1  
     e( 24 - 24) =     20.20509  eV     1   --> A_2  D_2  S_2  
     e( 25 - 25) =     21.70293  eV     1   --> B_2  D_4  S_4  
     e( 26 - 26) =     21.94071  eV     1   --> A_1  D_1  S_1  
     e( 27 - 27) =     24.88519  eV     1   --> A_1  D_1  S_1  
     e( 28 - 28) =     25.44008  eV     1   --> B_2  D_4  S_4  
     e( 29 - 29) =     25.78845  eV     1   --> B_1  D_3  S_3  
     e( 30 - 30) =     26.54322  eV     1   --> B_2  D_4  S_4  
     e( 31 - 31) =     26.56559  eV     1   --> A_1  D_1  S_1  
     e( 32 - 32) =     27.35033  eV     1   --> B_1  D_3  S_3  

 **************************************************************************

 **************************************************************************

                    xk=(   0.42500,   0.24537,   0.00000  )

     Band symmetry, C_2v (mm2)  point group:

     e(  1 -  1) =    -17.11653  eV     1   --> A_1  D_1  S_1  
     e(  2 -  2) =    -13.66129  eV     1   --> A_1  D_1  S_1  
     e(  3 -  3) =     -8.02337  eV     1   --> B_1  D_3  S_3  
     e(  4 -  4) =     -4.79159  eV     1   --> B_2  D_4  S_4  
     e(  5 -  5) =      0.87166  eV     1   --> B_2  D_4  S_4  
     e(  6 -  6) =      5.71663  eV     1   --> A_1  D_1  S_1  
     e(  7 -  7) =      7.21888  eV     1   --> A_1  D_1  S_1  
     e(  8 -  8) =      8.07548  eV     1   --> B_2  D_4  S_4  
     e(  9 -  9) =      8.38590  eV     1   --> A_1  D_1  S_1  
     e( 10 - 10) =     10.18697  eV     1   --> B_2  D_4  S_4  
     e( 11 - 11) =     11.09177  eV     1   --> A_1  D_1  S_1  
     e( 12 - 12) =     11.80270  eV     1   --> A_1  D_1  S_1  
     e( 13 - 13) =     12.61352  eV     1   --> B_2  D_4  S_4  
     e( 14 - 14) =     13.21196  eV     1   --> A_1  D_1  S_1  
     e( 15 - 15) =     13.74632  eV     1   --> B_2  D_4  S_4  
     e( 16 - 16) =     14.84228  eV     1   --> B_2  D_4  S_4  
     e( 17 - 17) =     15.19387  eV     1   --> A_1  D_1  S_1  
     e( 18 - 18) =     15.57738  eV     1   --> A_1  D_1  S_1  
     e( 19 - 19) =     17.11223  eV     1   --> B_2  D_4  S_4  
     e( 20 - 20) =     17.21053  eV     1   --> B_1  D_3  S_3  
     e( 21 - 21) =     18.45973  eV     1   --> A_1  D_1  S_1  
     e( 22 - 22) =     19.30598  eV     1   --> B_2  D_4  S_4  
     e( 23 - 23) =     20.06505  eV     1   --> A_2  D_2  S_2  
     e( 24 - 24) =     20.39038  eV     1   --> A_1  D_1  S_1  
     e( 25 - 25) =     21.42297  eV     1   --> B_2  D_4  S_4  
     e( 26 - 26) =     21.50375  eV     1   --> A_1  D_1  S_1  
     e( 27 - 27) =     24.70569  eV     1   --> A_1  D_1  S_1  
     e( 28 - 28) =     25.01626  eV     1   --> B_2  D_4  S_4  
     e( 29 - 29) =     25.62083  eV     1   --> B_1  D_3  S_3  
     e( 30 - 30) =     26.38171  eV     1   --> A_1  D_1  S_1  
     e( 31 - 31) =     26.63584  eV     1   --> B_2  D_4  S_4  
     e( 32 - 32) =     27.00770  eV     1   --> A_1  D_1  S_1  

 **************************************************************************

 **************************************************************************

                    xk=(   0.45000,   0.25981,   0.00000  )

     Band symmetry, C_2v (mm2)  point group:

     e(  1 -  1) =    -16.66074  eV     1   --> A_1  D_1  S_1  
     e(  2 -  2) =    -14.22614  eV     1   --> A_1  D_1  S_1  
     e(  3 -  3) =     -8.09632  eV     1   --> B_1  D_3  S_3  
     e(  4 -  4) =     -4.43321  eV     1   --> B_2  D_4  S_4  
     e(  5 -  5) =      0.39992  eV     1   --> B_2  D_4  S_4  
     e(  6 -  6) =      5.68105  eV     1   --> A_1  D_1  S_1  
     e(  7 -  7) =      7.90688  eV     1   --> A_1  D_1  S_1  
     e(  8 -  8) =      8.76661  eV     1   --> B_2  D_4  S_4  
     e(  9 -  9) =      9.09428  eV     1   --> A_1  D_1  S_1  
     e( 10 - 10) =     10.83529  eV     1   --> B_2  D_4  S_4  
     e( 11 - 11) =     10.98403  eV     1   --> A_1  D_1  S_1  
     e( 12 - 12) =     11.78295  eV     1   --> A_1  D_1  S_1  
     e( 13 - 13) =     11.86958  eV     1   --> B_2  D_4  S_4  
     e( 14 - 14) =     12.31789  eV     1   --> A_1  D_1  S_1  
     e( 15 - 15) =     13.64753  eV     1   --> B_2  D_4  S_4  
     e( 16 - 16) =     14.62524  eV     1   --> B_2  D_4  S_4  
     e( 17 - 17) =     14.80383  eV     1   --> A_1  D_1  S_1  
     e( 18 - 18) =     15.84193  eV     1   --> A_1  D_1  S_1  
     e( 19 - 19) =     16.82385  eV     1   --> B_2  D_4  S_4  
     e( 20 - 20) =     17.70787  eV     1   --> B_1  D_3  S_3  
     e( 21 - 21) =     18.16815  eV     1   --> A_1  D_1  S_1  
     e( 22 - 22) =     19.09028  eV     1   --> B_2  D_4  S_4  
     e( 23 - 23) =     19.96489  eV     1   --> A_2  D_2  S_2  
     e( 24 - 24) =     20.43966  eV     1   --> A_1  D_1  S_1  
     e( 25 - 25) =     21.46206  eV     1   --> B_2  D_4  S_4  
     e( 26 - 26) =     21.55750  eV     1   --> A_1  D_1  S_1  
     e( 27 - 27) =     24.45435  eV     1   --> A_1  D_1  S_1  
     e( 28 - 28) =     24.46008  eV     1   --> B_2  D_4  S_4  
     e( 29 - 29) =     25.49489  eV     1   --> B_1  D_3  S_3  
     e( 30 - 30) =     26.16088  eV     1   --> A_1  D_1  S_1  
     e( 31 - 31) =     26.65172  eV     1   --> A_1  D_1  S_1  
     e( 32 - 32) =     26.75891  eV     1   --> B_2  D_4  S_4  

 **************************************************************************

 **************************************************************************

                    xk=(   0.47500,   0.27424,   0.00000  )

     Band symmetry, C_2v (mm2)  point group:

     e(  1 -  1) =    -16.23452  eV     1   --> A_1  D_1  S_1  
     e(  2 -  2) =    -14.71818  eV     1   --> A_1  D_1  S_1  
     e(  3 -  3) =     -8.14030  eV     1   --> B_1  D_3  S_3  
     e(  4 -  4) =     -4.17716  eV     1   --> B_2  D_4  S_4  
     e(  5 -  5) =      0.07513  eV     1   --> B_2  D_4  S_4  
     e(  6 -  6) =      5.65897  eV     1   --> A_1  D_1  S_1  
     e(  7 -  7) =      8.62983  eV     1   --> A_1  D_1  S_1  
     e(  8 -  8) =      9.48893  eV     1   --> B_2  D_4  S_4  
     e(  9 -  9) =      9.83953  eV     1   --> A_1  D_1  S_1  
     e( 10 - 10) =     10.18282  eV     1   --> A_1  D_1  S_1  
     e( 11 - 11) =     11.00197  eV     1   --> B_2  D_4  S_4  
     e( 12 - 12) =     11.45552  eV     1   --> A_1  D_1  S_1  
     e( 13 - 13) =     11.58832  eV     1   --> B_2  D_4  S_4  
     e( 14 - 14) =     12.50269  eV     1   --> A_1  D_1  S_1  
     e( 15 - 15) =     13.04997  eV     1   --> B_2  D_4  S_4  
     e( 16 - 16) =     14.02463  eV     1   --> A_1  D_1  S_1  
     e( 17 - 17) =     14.87740  eV     1   --> B_2  D_4  S_4  
     e( 18 - 18) =     16.48480  eV     1   --> A_1  D_1  S_1  
     e( 19 - 19) =     16.57564  eV     1   --> B_2  D_4  S_4  
     e( 20 - 20) =     17.71612  eV     1   --> A_1  D_1  S_1  
     e( 21 - 21) =     18.02800  eV     1   --> B_1  D_3  S_3  
     e( 22 - 22) =     18.87338  eV     1   --> B_2  D_4  S_4  
     e( 23 - 23) =     19.90475  eV     1   --> A_2  D_2  S_2  
     e( 24 - 24) =     20.36519  eV     1   --> A_1  D_1  S_1  
     e( 25 - 25) =     21.66743  eV     1   --> B_2  D_4  S_4  
     e( 26 - 26) =     21.85468  eV     1   --> A_1  D_1  S_1  
     e( 27 - 27) =     23.98491  eV     1   --> B_2  D_4  S_4  
     e( 28 - 28) =     24.18459  eV     1   --> A_1  D_1  S_1  
     e( 29 - 29) =     25.41566  eV     1   --> B_1  D_3  S_3  
     e( 30 - 30) =     25.96292  eV     1   --> A_1  D_1  S_1  
     e( 31 - 31) =     26.48290  eV     1   --> A_1  D_1  S_1  
     e( 32 - 32) =     26.80007  eV     1   --> B_2  D_4  S_4  

 **************************************************************************

 **************************************************************************

                    xk=(   0.50000,   0.28868,   0.00000  )

     point group D_2h (mmm) 
     there are  8 classes
     the character table:

       E     C2    C2'   C2''  i     s_v   s_v'  s_v''
A_g    1.00  1.00  1.00  1.00  1.00  1.00  1.00  1.00
B_1g   1.00  1.00 -1.00 -1.00  1.00  1.00 -1.00 -1.00
B_2g   1.00 -1.00  1.00 -1.00  1.00 -1.00  1.00 -1.00
B_3g   1.00 -1.00 -1.00  1.00  1.00 -1.00 -1.00  1.00
A_u    1.00  1.00  1.00  1.00 -1.00 -1.00 -1.00 -1.00
B_1u   1.00  1.00 -1.00 -1.00 -1.00 -1.00  1.00  1.00
B_2u   1.00 -1.00  1.00 -1.00 -1.00  1.00 -1.00  1.00
B_3u   1.00 -1.00 -1.00  1.00 -1.00  1.00  1.00 -1.00

     the symmetry operations in each class and the name of the first element:

     E        1
                                                                 
     C2       2
                                                                 
     C2'      4
                                                                 
     C2''     3
                                                                 
     i        5
                                                                 
     s_v      6
                                                                 
     s_v'     8
                                                                 
     s_v''    7
                                                                 

     Band symmetry, D_2h (mmm)  point group:

     e(  1 -  1) =    -16.00851  eV     1   --> B_3u           
     e(  2 -  2) =    -14.96617  eV     1   --> A_g            
     e(  3 -  3) =     -8.15500  eV     1   --> B_2u           
     e(  4 -  4) =     -4.08211  eV     1   --> B_2g           
     e(  5 -  5) =     -0.04293  eV     1   --> B_1u           
     e(  6 -  6) =      5.65151  eV     1   --> A_g            
     e(  7 -  7) =      9.32170  eV     1   --> B_3u           
     e(  8 -  8) =      9.45758  eV     1   --> A_g            
     e(  9 -  9) =     10.15245  eV     1   --> B_1u           
     e( 10 - 10) =     10.34304  eV     1   --> B_2g           
     e( 11 - 11) =     10.61890  eV     1   --> B_3u           
     e( 12 - 12) =     10.64354  eV     1   --> A_g            
     e( 13 - 13) =     12.07197  eV     1   --> B_1u           
     e( 14 - 14) =     12.53867  eV     1   --> B_2g           
     e( 15 - 15) =     13.22187  eV     1   --> B_3u           
     e( 16 - 16) =     13.28286  eV     1   --> A_g            
     e( 17 - 17) =     15.02399  eV     1   --> B_1u           
     e( 18 - 18) =     16.46181  eV     1   --> B_2g           
     e( 19 - 19) =     17.02905  eV     1   --> B_3u           
     e( 20 - 20) =     17.22754  eV     1   --> A_g            
     e( 21 - 21) =     18.13886  eV     1   --> B_1g           
     e( 22 - 22) =     18.78501  eV     1   --> B_1u           
     e( 23 - 23) =     19.88473  eV     1   --> B_3g           
     e( 24 - 24) =     20.33914  eV     1   --> B_3u           
     e( 25 - 25) =     21.78772  eV     1   --> B_2g           
     e( 26 - 26) =     22.00605  eV     1   --> A_g            
     e( 27 - 27) =     23.78250  eV     1   --> B_1u           
     e( 28 - 28) =     24.05377  eV     1   --> B_3u           
     e( 29 - 29) =     25.38846  eV     1   --> B_2u           
     e( 30 - 30) =     25.88696  eV     1   --> A_g            
     e( 31 - 31) =     26.43565  eV     1   --> A_g            
     e( 32 - 32) =     26.80592  eV     1   --> B_1u           

 **************************************************************************

 **************************************************************************

                    xk=(   0.51389,   0.26462,   0.00000  )

     point group C_2v (mm2) 
     there are  4 classes
     the character table:

       E     C2    s_v   s_v' 
A_1    1.00  1.00  1.00  1.00
A_2    1.00  1.00 -1.00 -1.00
B_1    1.00 -1.00  1.00 -1.00
B_2    1.00 -1.00 -1.00  1.00

     the symmetry operations in each class and the name of the first element:

     E        1
                                                                 
     C2       2
                                                                 
     s_v      4
                                                                 
     s_v'     3
                                                                 

     Band symmetry, C_2v (mm2)  point group:

     e(  1 -  1) =    -15.99678  eV     1   --> B_2  D_4  S_4  
     e(  2 -  2) =    -14.95458  eV     1   --> A_1  D_1  S_1  
     e(  3 -  3) =     -8.21649  eV     1   --> A_1  D_1  S_1  
     e(  4 -  4) =     -4.06545  eV     1   --> A_2  D_2  S_2  
     e(  5 -  5) =     -0.04687  eV     1   --> B_1  D_3  S_3  
     e(  6 -  6) =      5.73461  eV     1   --> A_1  D_1  S_1  
     e(  7 -  7) =      9.33808  eV     1   --> B_2  D_4  S_4  
     e(  8 -  8) =      9.47495  eV     1   --> A_1  D_1  S_1  
     e(  9 -  9) =     10.15506  eV     1   --> B_1  D_3  S_3  
     e( 10 - 10) =     10.36187  eV     1   --> A_2  D_2  S_2  
     e( 11 - 11) =     10.63704  eV     1   --> B_2  D_4  S_4  
     e( 12 - 12) =     10.66193  eV     1   --> A_1  D_1  S_1  
     e( 13 - 13) =     12.06530  eV     1   --> B_1  D_3  S_3  
     e( 14 - 14) =     12.55740  eV     1   --> A_2  D_2  S_2  
     e( 15 - 15) =     13.23612  eV     1   --> B_2  D_4  S_4  
     e( 16 - 16) =     13.29954  eV     1   --> A_1  D_1  S_1  
     e( 17 - 17) =     14.97372  eV     1   --> B_1  D_3  S_3  
     e( 18 - 18) =     16.48024  eV     1   --> A_2  D_2  S_2  
     e( 19 - 19) =     16.98972  eV     1   --> B_2  D_4  S_4  
     e( 20 - 20) =     17.23886  eV     1   --> A_1  D_1  S_1  
     e( 21 - 21) =     18.15176  eV     1   --> B_2  D_4  S_4  
     e( 22 - 22) =     18.58638  eV     1   --> B_1  D_3  S_3  
     e( 23 - 23) =     20.15231  eV     1   --> B_1  D_3  S_3  
     e( 24 - 24) =     20.39449  eV     1   --> B_2  D_4  S_4  
     e( 25 - 25) =     21.80556  eV     1   --> A_2  D_2  S_2  
     e( 26 - 26) =     21.98621  eV     1   --> A_1  D_1  S_1  
     e( 27 - 27) =     23.85308  eV     1   --> B_1  D_3  S_3  
     e( 28 - 28) =     24.06703  eV     1   --> B_2  D_4  S_4  
     e( 29 - 29) =     24.43906  eV     1   --> A_1  D_1  S_1  
     e( 30 - 30) =     25.69124  eV     1   --> A_1  D_1  S_1  
     e( 31 - 31) =     25.77476  eV     1   --> B_1  D_3  S_3  
     e( 32 - 32) =     26.13395  eV     1   --> A_1  D_1  S_1  

 **************************************************************************

 **************************************************************************

                    xk=(   0.52778,   0.24056,   0.00000  )

     Band symmetry, C_2v (mm2)  point group:

     e(  1 -  1) =    -15.96166  eV     1   --> B_2  D_4  S_4  
     e(  2 -  2) =    -14.91995  eV     1   --> A_1  D_1  S_1  
     e(  3 -  3) =     -8.39608  eV     1   --> A_1  D_1  S_1  
     e(  4 -  4) =     -4.01552  eV     1   --> A_2  D_2  S_2  
     e(  5 -  5) =     -0.05950  eV     1   --> B_1  D_3  S_3  
     e(  6 -  6) =      5.97866  eV     1   --> A_1  D_1  S_1  
     e(  7 -  7) =      9.38706  eV     1   --> B_2  D_4  S_4  
     e(  8 -  8) =      9.52699  eV     1   --> A_1  D_1  S_1  
     e(  9 -  9) =     10.15929  eV     1   --> B_1  D_3  S_3  
     e( 10 - 10) =     10.41837  eV     1   --> A_2  D_2  S_2  
     e( 11 - 11) =     10.69142  eV     1   --> B_2  D_4  S_4  
     e( 12 - 12) =     10.71709  eV     1   --> A_1  D_1  S_1  
     e( 13 - 13) =     12.04384  eV     1   --> B_1  D_3  S_3  
     e( 14 - 14) =     12.61358  eV     1   --> A_2  D_2  S_2  
     e( 15 - 15) =     13.27839  eV     1   --> B_2  D_4  S_4  
     e( 16 - 16) =     13.34941  eV     1   --> A_1  D_1  S_1  
     e( 17 - 17) =     14.83658  eV     1   --> B_1  D_3  S_3  
     e( 18 - 18) =     16.53553  eV     1   --> A_2  D_2  S_2  
     e( 19 - 19) =     16.87844  eV     1   --> B_2  D_4  S_4  
     e( 20 - 20) =     17.27196  eV     1   --> A_1  D_1  S_1  
     e( 21 - 21) =     18.19401  eV     1   --> B_2  D_4  S_4  
     e( 22 - 22) =     18.27805  eV     1   --> B_1  D_3  S_3  
     e( 23 - 23) =     20.55043  eV     1   --> B_2  D_4  S_4  
     e( 24 - 24) =     20.63436  eV     1   --> B_1  D_3  S_3  
     e( 25 - 25) =     21.85905  eV     1   --> A_2  D_2  S_2  
     e( 26 - 26) =     21.91666  eV     1   --> A_1  D_1  S_1  
     e( 27 - 27) =     23.23471  eV     1   --> A_1  D_1  S_1  
     e( 28 - 28) =     24.05628  eV     1   --> B_1  D_3  S_3  
     e( 29 - 29) =     24.10673  eV     1   --> B_2  D_4  S_4  
     e( 30 - 30) =     24.43319  eV     1   --> A_1  D_1  S_1  
     e( 31 - 31) =     24.58378  eV     1   --> B_1  D_3  S_3  
     e( 32 - 32) =     25.94401  eV     1   --> A_1  D_1  S_1  

 **************************************************************************

 **************************************************************************

                    xk=(   0.54167,   0.21651,   0.00000  )

     Band symmetry, C_2v (mm2)  point group:

     e(  1 -  1) =    -15.90312  eV     1   --> B_2  D_4  S_4  
     e(  2 -  2) =    -14.86275  eV     1   --> A_1  D_1  S_1  
     e(  3 -  3) =     -8.68038  eV     1   --> A_1  D_1  S_1  
     e(  4 -  4) =     -3.93235  eV     1   --> A_2  D_2  S_2  
     e(  5 -  5) =     -0.08332  eV     1   --> B_1  D_3  S_3  
     e(  6 -  6) =      6.36921  eV     1   --> A_1  D_1  S_1  
     e(  7 -  7) =      9.46820  eV     1   --> B_2  D_4  S_4  
     e(  8 -  8) =      9.61342  eV     1   --> A_1  D_1  S_1  
     e(  9 -  9) =     10.15343  eV     1   --> B_1  D_3  S_3  
     e( 10 - 10) =     10.51251  eV     1   --> A_2  D_2  S_2  
     e( 11 - 11) =     10.78191  eV     1   --> B_2  D_4  S_4  
     e( 12 - 12) =     10.80894  eV     1   --> A_1  D_1  S_1  
     e( 13 - 13) =     12.00631  eV     1   --> B_1  D_3  S_3  
     e( 14 - 14) =     12.70721  eV     1   --> A_2  D_2  S_2  
     e( 15 - 15) =     13.34717  eV     1   --> B_2  D_4  S_4  
     e( 16 - 16) =     13.43199  eV     1   --> A_1  D_1  S_1  
     e( 17 - 17) =     14.65480  eV     1   --> B_1  D_3  S_3  
     e( 18 - 18) =     16.62765  eV     1   --> A_2  D_2  S_2  
     e( 19 - 19) =     16.71342  eV     1   --> B_2  D_4  S_4  
     e( 20 - 20) =     17.32413  eV     1   --> A_1  D_1  S_1  
     e( 21 - 21) =     18.05442  eV     1   --> B_1  D_3  S_3  
     e( 22 - 22) =     18.27169  eV     1   --> B_2  D_4  S_4  
     e( 23 - 23) =     20.78340  eV     1   --> B_2  D_4  S_4  
     e( 24 - 24) =     21.03039  eV     1   --> B_1  D_3  S_3  
     e( 25 - 25) =     21.69774  eV     1   --> A_1  D_1  S_1  
     e( 26 - 26) =     21.94811  eV     1   --> A_2  D_2  S_2  
     e( 27 - 27) =     22.13397  eV     1   --> A_1  D_1  S_1  
     e( 28 - 28) =     23.19191  eV     1   --> A_1  D_1  S_1  
     e( 29 - 29) =     23.38164  eV     1   --> B_1  D_3  S_3  
     e( 30 - 30) =     24.17265  eV     1   --> B_2  D_4  S_4  
     e( 31 - 31) =     24.51510  eV     1   --> B_1  D_3  S_3  
     e( 32 - 32) =     25.51229  eV     1   --> A_1  D_1  S_1  

 **************************************************************************

 **************************************************************************

                    xk=(   0.55556,   0.19245,   0.00000  )

     Band symmetry, C_2v (mm2)  point group:

     e(  1 -  1) =    -15.82119  eV     1   --> B_2  D_4  S_4  
     e(  2 -  2) =    -14.78390  eV     1   --> A_1  D_1  S_1  
     e(  3 -  3) =     -9.05075  eV     1   --> A_1  D_1  S_1  
     e(  4 -  4) =     -3.81607  eV     1   --> A_2  D_2  S_2  
     e(  5 -  5) =     -0.12247  eV     1   --> B_1  D_3  S_3  
     e(  6 -  6) =      6.88531  eV     1   --> A_1  D_1  S_1  
     e(  7 -  7) =      9.58066  eV     1   --> B_2  D_4  S_4  
     e(  8 -  8) =      9.73378  eV     1   --> A_1  D_1  S_1  
     e(  9 -  9) =     10.11662  eV     1   --> B_1  D_3  S_3  
     e( 10 - 10) =     10.64428  eV     1   --> A_2  D_2  S_2  
     e( 11 - 11) =     10.90831  eV     1   --> B_2  D_4  S_4  
     e( 12 - 12) =     10.93732  eV     1   --> A_1  D_1  S_1  
     e( 13 - 13) =     11.96071  eV     1   --> B_1  D_3  S_3  
     e( 14 - 14) =     12.83825  eV     1   --> A_2  D_2  S_2  
     e( 15 - 15) =     13.43957  eV     1   --> B_2  D_4  S_4  
     e( 16 - 16) =     13.54633  eV     1   --> A_1  D_1  S_1  
     e( 17 - 17) =     14.48910  eV     1   --> B_1  D_3  S_3  
     e( 18 - 18) =     16.51861  eV     1   --> B_2  D_4  S_4  
     e( 19 - 19) =     16.75654  eV     1   --> A_2  D_2  S_2  
     e( 20 - 20) =     17.39007  eV     1   --> A_1  D_1  S_1  
     e( 21 - 21) =     17.93532  eV     1   --> B_1  D_3  S_3  
     e( 22 - 22) =     18.38796  eV     1   --> B_2  D_4  S_4  
     e( 23 - 23) =     20.76061  eV     1   --> A_1  D_1  S_1  
     e( 24 - 24) =     21.06791  eV     1   --> B_2  D_4  S_4  
     e( 25 - 25) =     21.09022  eV     1   --> B_1  D_3  S_3  
     e( 26 - 26) =     21.66519  eV     1   --> A_1  D_1  S_1  
     e( 27 - 27) =     22.03785  eV     1   --> A_1  D_1  S_1  
     e( 28 - 28) =     22.07259  eV     1   --> A_2  D_2  S_2  
     e( 29 - 29) =     22.44973  eV     1   --> B_1  D_3  S_3  
     e( 30 - 30) =     24.26459  eV     1   --> B_2  D_4  S_4  
     e( 31 - 31) =     24.59711  eV     1   --> B_1  D_3  S_3  
     e( 32 - 32) =     24.59779  eV     1   --> A_1  D_1  S_1  

 **************************************************************************

 **************************************************************************

                    xk=(   0.56944,   0.16839,   0.00000  )

     Band symmetry, C_2v (mm2)  point group:

     e(  1 -  1) =    -15.71588  eV     1   --> B_2  D_4  S_4  
     e(  2 -  2) =    -14.68496  eV     1   --> A_1  D_1  S_1  
     e(  3 -  3) =     -9.48657  eV     1   --> A_1  D_1  S_1  
     e(  4 -  4) =     -3.66682  eV     1   --> A_2  D_2  S_2  
     e(  5 -  5) =     -0.18261  eV     1   --> B_1  D_3  S_3  
     e(  6 -  6) =      7.50290  eV     1   --> A_1  D_1  S_1  
     e(  7 -  7) =      9.72311  eV     1   --> B_2  D_4  S_4  
     e(  8 -  8) =      9.88738  eV     1   --> A_1  D_1  S_1  
     e(  9 -  9) =     10.02302  eV     1   --> B_1  D_3  S_3  
     e( 10 - 10) =     10.81367  eV     1   --> A_2  D_2  S_2  
     e( 11 - 11) =     11.07025  eV     1   --> B_2  D_4  S_4  
     e( 12 - 12) =     11.10204  eV     1   --> A_1  D_1  S_1  
     e( 13 - 13) =     11.93366  eV     1   --> B_1  D_3  S_3  
     e( 14 - 14) =     13.00666  eV     1   --> A_2  D_2  S_2  
     e( 15 - 15) =     13.55063  eV     1   --> B_2  D_4  S_4  
     e( 16 - 16) =     13.69090  eV     1   --> A_1  D_1  S_1  
     e( 17 - 17) =     14.39076  eV     1   --> B_1  D_3  S_3  
     e( 18 - 18) =     16.31828  eV     1   --> B_2  D_4  S_4  
     e( 19 - 19) =     16.92211  eV     1   --> A_2  D_2  S_2  
     e( 20 - 20) =     17.46026  eV     1   --> A_1  D_1  S_1  
     e( 21 - 21) =     17.89125  eV     1   --> B_1  D_3  S_3  
     e( 22 - 22) =     18.54318  eV     1   --> B_2  D_4  S_4  
     e( 23 - 23) =     19.63745  eV     1   --> A_1  D_1  S_1  
     e( 24 - 24) =     20.51241  eV     1   --> B_1  D_3  S_3  
     e( 25 - 25) =     20.74502  eV     1   --> A_1  D_1  S_1  
     e( 26 - 26) =     21.38207  eV     1   --> B_2  D_4  S_4  
     e( 27 - 27) =     21.52724  eV     1   --> A_1  D_1  S_1  
     e( 28 - 28) =     21.91343  eV     1   --> B_1  D_3  S_3  
     e( 29 - 29) =     22.23225  eV     1   --> A_2  D_2  S_2  
     e( 30 - 30) =     23.51823  eV     1   --> A_1  D_1  S_1  
     e( 31 - 31) =     23.78704  eV     1   --> B_1  D_3  S_3  
     e( 32 - 32) =     24.38269  eV     1   --> B_2  D_4  S_4  

 **************************************************************************

 **************************************************************************

                    xk=(   0.58333,   0.14434,   0.00000  )

     Band symmetry, C_2v (mm2)  point group:

     e(  1 -  1) =    -15.58729  eV     1   --> B_2  D_4  S_4  
     e(  2 -  2) =    -14.56851  eV     1   --> A_1  D_1  S_1  
     e(  3 -  3) =     -9.96737  eV     1   --> A_1  D_1  S_1  
     e(  4 -  4) =     -3.48479  eV     1   --> A_2  D_2  S_2  
     e(  5 -  5) =     -0.27061  eV     1   --> B_1  D_3  S_3  
     e(  6 -  6) =      8.19601  eV     1   --> A_1  D_1  S_1  
     e(  7 -  7) =      9.85874  eV     1   --> B_1  D_3  S_3  
     e(  8 -  8) =      9.89348  eV     1   --> B_2  D_4  S_4  
     e(  9 -  9) =     10.07332  eV     1   --> A_1  D_1  S_1  
     e( 10 - 10) =     11.02061  eV     1   --> A_2  D_2  S_2  
     e( 11 - 11) =     11.26717  eV     1   --> B_2  D_4  S_4  
     e( 12 - 12) =     11.30279  eV     1   --> A_1  D_1  S_1  
     e( 13 - 13) =     11.96151  eV     1   --> B_1  D_3  S_3  
     e( 14 - 14) =     13.21241  eV     1   --> A_2  D_2  S_2  
     e( 15 - 15) =     13.67241  eV     1   --> B_2  D_4  S_4  
     e( 16 - 16) =     13.86325  eV     1   --> A_1  D_1  S_1  
     e( 17 - 17) =     14.38067  eV     1   --> B_1  D_3  S_3  
     e( 18 - 18) =     16.13622  eV     1   --> B_2  D_4  S_4  
     e( 19 - 19) =     17.12424  eV     1   --> A_2  D_2  S_2  
     e( 20 - 20) =     17.51513  eV     1   --> A_1  D_1  S_1  
     e( 21 - 21) =     17.86192  eV     1   --> B_1  D_3  S_3  
     e( 22 - 22) =     18.54528  eV     1   --> A_1  D_1  S_1  
     e( 23 - 23) =     18.73672  eV     1   --> B_2  D_4  S_4  
     e( 24 - 24) =     19.61650  eV     1   --> B_1  D_3  S_3  
     e( 25 - 25) =     19.62443  eV     1   --> A_1  D_1  S_1  
     e( 26 - 26) =     21.20891  eV     1   --> A_1  D_1  S_1  
     e( 27 - 27) =     21.36045  eV     1   --> B_1  D_3  S_3  
     e( 28 - 28) =     21.70747  eV     1   --> B_2  D_4  S_4  
     e( 29 - 29) =     22.42679  eV     1   --> A_2  D_2  S_2  
     e( 30 - 30) =     22.46320  eV     1   --> A_1  D_1  S_1  
     e( 31 - 31) =     23.31842  eV     1   --> B_1  D_3  S_3  
     e( 32 - 32) =     24.52791  eV     1   --> B_2  D_4  S_4  

 **************************************************************************

 **************************************************************************

                    xk=(   0.59722,   0.12028,   0.00000  )

     Band symmetry, C_2v (mm2)  point group:

     e(  1 -  1) =    -15.43542  eV     1   --> B_2  D_4  S_4  
     e(  2 -  2) =    -14.43906  eV     1   --> A_1  D_1  S_1  
     e(  3 -  3) =    -10.47315  eV     1   --> A_1  D_1  S_1  
     e(  4 -  4) =     -3.27023  eV     1   --> A_2  D_2  S_2  
     e(  5 -  5) =     -0.39398  eV     1   --> B_1  D_3  S_3  
     e(  6 -  6) =      8.93552  eV     1   --> A_1  D_1  S_1  
     e(  7 -  7) =      9.63935  eV     1   --> B_1  D_3  S_3  
     e(  8 -  8) =     10.08859  eV     1   --> B_2  D_4  S_4  
     e(  9 -  9) =     10.29090  eV     1   --> A_1  D_1  S_1  
     e( 10 - 10) =     11.26509  eV     1   --> A_2  D_2  S_2  
     e( 11 - 11) =     11.49823  eV     1   --> B_2  D_4  S_4  
     e( 12 - 12) =     11.53920  eV     1   --> A_1  D_1  S_1  
     e( 13 - 13) =     12.06525  eV     1   --> B_1  D_3  S_3  
     e( 14 - 14) =     13.45541  eV     1   --> A_2  D_2  S_2  
     e( 15 - 15) =     13.79306  eV     1   --> B_2  D_4  S_4  
     e( 16 - 16) =     14.05940  eV     1   --> A_1  D_1  S_1  
     e( 17 - 17) =     14.45225  eV     1   --> B_1  D_3  S_3  
     e( 18 - 18) =     15.99745  eV     1   --> B_2  D_4  S_4  
     e( 19 - 19) =     17.36278  eV     1   --> A_2  D_2  S_2  
     e( 20 - 20) =     17.36318  eV     1   --> A_1  D_1  S_1  
     e( 21 - 21) =     17.66740  eV     1   --> A_1  D_1  S_1  
     e( 22 - 22) =     17.68412  eV     1   --> B_1  D_3  S_3  
     e( 23 - 23) =     18.54247  eV     1   --> A_1  D_1  S_1  
     e( 24 - 24) =     18.83283  eV     1   --> B_1  D_3  S_3  
     e( 25 - 25) =     18.96779  eV     1   --> B_2  D_4  S_4  
     e( 26 - 26) =     20.60783  eV     1   --> B_1  D_3  S_3  
     e( 27 - 27) =     20.81111  eV     1   --> A_1  D_1  S_1  
     e( 28 - 28) =     21.53243  eV     1   --> A_1  D_1  S_1  
     e( 29 - 29) =     22.02732  eV     1   --> B_2  D_4  S_4  
     e( 30 - 30) =     22.65579  eV     1   --> A_2  D_2  S_2  
     e( 31 - 31) =     23.07003  eV     1   --> B_1  D_3  S_3  
     e( 32 - 32) =     24.70265  eV     1   --> B_2  D_4  S_4  

 **************************************************************************

 **************************************************************************

                    xk=(   0.61111,   0.09623,   0.00000  )

     Band symmetry, C_2v (mm2)  point group:

     e(  1 -  1) =    -15.26033  eV     1   --> B_2  D_4  S_4  
     e(  2 -  2) =    -14.30501  eV     1   --> A_1  D_1  S_1  
     e(  3 -  3) =    -10.98294  eV     1   --> A_1  D_1  S_1  
     e(  4 -  4) =     -3.02344  eV     1   --> A_2  D_2  S_2  
     e(  5 -  5) =     -0.56002  eV     1   --> B_1  D_3  S_3  
     e(  6 -  6) =      9.40275  eV     1   --> B_1  D_3  S_3  
     e(  7 -  7) =      9.68298  eV     1   --> A_1  D_1  S_1  
     e(  8 -  8) =     10.30351  eV     1   --> B_2  D_4  S_4  
     e(  9 -  9) =     10.54200  eV     1   --> A_1  D_1  S_1  
     e( 10 - 10) =     11.54702  eV     1   --> A_2  D_2  S_2  
     e( 11 - 11) =     11.76209  eV     1   --> B_2  D_4  S_4  
     e( 12 - 12) =     11.81080  eV     1   --> A_1  D_1  S_1  
     e( 13 - 13) =     12.24316  eV     1   --> B_1  D_3  S_3  
     e( 14 - 14) =     13.73559  eV     1   --> A_2  D_2  S_2  
     e( 15 - 15) =     13.89801  eV     1   --> B_2  D_4  S_4  
     e( 16 - 16) =     14.27245  eV     1   --> A_1  D_1  S_1  
     e( 17 - 17) =     14.58284  eV     1   --> B_1  D_3  S_3  
     e( 18 - 18) =     15.92890  eV     1   --> B_2  D_4  S_4  
     e( 19 - 19) =     16.43064  eV     1   --> A_1  D_1  S_1  
     e( 20 - 20) =     17.08568  eV     1   --> B_1  D_3  S_3  
     e( 21 - 21) =     17.37926  eV     1   --> A_1  D_1  S_1  
     e( 22 - 22) =     17.63754  eV     1   --> A_2  D_2  S_2  
     e( 23 - 23) =     17.69942  eV     1   --> A_1  D_1  S_1  
     e( 24 - 24) =     18.41915  eV     1   --> B_1  D_3  S_3  
     e( 25 - 25) =     19.23563  eV     1   --> B_2  D_4  S_4  
     e( 26 - 26) =     19.87891  eV     1   --> B_1  D_3  S_3  
     e( 27 - 27) =     20.12547  eV     1   --> A_1  D_1  S_1  
     e( 28 - 28) =     20.99034  eV     1   --> A_1  D_1  S_1  
     e( 29 - 29) =     22.32444  eV     1   --> B_2  D_4  S_4  
     e( 30 - 30) =     22.73185  eV     1   --> B_1  D_3  S_3  
     e( 31 - 31) =     22.91867  eV     1   --> A_2  D_2  S_2  
     e( 32 - 32) =     24.43109  eV     1   --> A_1  D_1  S_1  

 **************************************************************************

 **************************************************************************

                    xk=(   0.62500,   0.07217,   0.00000  )

     Band symmetry, C_2v (mm2)  point group:

     e(  1 -  1) =    -15.06212  eV     1   --> B_2  D_4  S_4  
     e(  2 -  2) =    -14.18285  eV     1   --> A_1  D_1  S_1  
     e(  3 -  3) =    -11.47020  eV     1   --> A_1  D_1  S_1  
     e(  4 -  4) =     -2.74480  eV     1   --> A_2  D_2  S_2  
     e(  5 -  5) =     -0.77450  eV     1   --> B_1  D_3  S_3  
     e(  6 -  6) =      9.18802  eV     1   --> B_1  D_3  S_3  
     e(  7 -  7) =     10.36641  eV     1   --> A_1  D_1  S_1  
     e(  8 -  8) =     10.53050  eV     1   --> B_2  D_4  S_4  
     e(  9 -  9) =     10.84600  eV     1   --> A_1  D_1  S_1  
     e( 10 - 10) =     11.86634  eV     1   --> A_2  D_2  S_2  
     e( 11 - 11) =     12.05667  eV     1   --> B_2  D_4  S_4  
     e( 12 - 12) =     12.11703  eV     1   --> A_1  D_1  S_1  
     e( 13 - 13) =     12.48280  eV     1   --> B_1  D_3  S_3  
     e( 14 - 14) =     13.97698  eV     1   --> B_2  D_4  S_4  
     e( 15 - 15) =     14.05285  eV     1   --> A_2  D_2  S_2  
     e( 16 - 16) =     14.48636  eV     1   --> A_1  D_1  S_1  
     e( 17 - 17) =     14.72573  eV     1   --> B_1  D_3  S_3  
     e( 18 - 18) =     15.49277  eV     1   --> A_1  D_1  S_1  
     e( 19 - 19) =     15.95461  eV     1   --> B_2  D_4  S_4  
     e( 20 - 20) =     16.27212  eV     1   --> B_1  D_3  S_3  
     e( 21 - 21) =     16.45588  eV     1   --> A_1  D_1  S_1  
     e( 22 - 22) =     17.55831  eV     1   --> A_1  D_1  S_1  
     e( 23 - 23) =     17.94826  eV     1   --> A_2  D_2  S_2  
     e( 24 - 24) =     18.00618  eV     1   --> B_1  D_3  S_3  
     e( 25 - 25) =     19.25531  eV     1   --> A_1  D_1  S_1  
     e( 26 - 26) =     19.45664  eV     1   --> B_1  D_3  S_3  
     e( 27 - 27) =     19.53946  eV     1   --> B_2  D_4  S_4  
     e( 28 - 28) =     20.79710  eV     1   --> A_1  D_1  S_1  
     e( 29 - 29) =     22.17737  eV     1   --> B_1  D_3  S_3  
     e( 30 - 30) =     22.58064  eV     1   --> B_2  D_4  S_4  
     e( 31 - 31) =     23.21469  eV     1   --> A_2  D_2  S_2  
     e( 32 - 32) =     23.52520  eV     1   --> A_1  D_1  S_1  

 **************************************************************************

 **************************************************************************

                    xk=(   0.63889,   0.04811,   0.00000  )

     Band symmetry, C_2v (mm2)  point group:

     e(  1 -  1) =    -14.84086  eV     1   --> B_2  D_4  S_4  
     e(  2 -  2) =    -14.10638  eV     1   --> A_1  D_1  S_1  
     e(  3 -  3) =    -11.89342  eV     1   --> A_1  D_1  S_1  
     e(  4 -  4) =     -2.43471  eV     1   --> A_2  D_2  S_2  
     e(  5 -  5) =     -1.04056  eV     1   --> B_1  D_3  S_3  
     e(  6 -  6) =      9.02325  eV     1   --> B_1  D_3  S_3  
     e(  7 -  7) =     10.75766  eV     1   --> B_2  D_4  S_4  
     e(  8 -  8) =     10.84034  eV     1   --> A_1  D_1  S_1  
     e(  9 -  9) =     11.25904  eV     1   --> A_1  D_1  S_1  
     e( 10 - 10) =     12.22295  eV     1   --> A_2  D_2  S_2  
     e( 11 - 11) =     12.37869  eV     1   --> B_2  D_4  S_4  
     e( 12 - 12) =     12.45594  eV     1   --> A_1  D_1  S_1  
     e( 13 - 13) =     12.76760  eV     1   --> B_1  D_3  S_3  
     e( 14 - 14) =     14.03685  eV     1   --> B_2  D_4  S_4  
     e( 15 - 15) =     14.40704  eV     1   --> A_2  D_2  S_2  
     e( 16 - 16) =     14.51131  eV     1   --> A_1  D_1  S_1  
     e( 17 - 17) =     14.69687  eV     1   --> B_1  D_3  S_3  
     e( 18 - 18) =     14.79676  eV     1   --> A_1  D_1  S_1  
     e( 19 - 19) =     15.57151  eV     1   --> A_1  D_1  S_1  
     e( 20 - 20) =     15.62159  eV     1   --> B_1  D_3  S_3  
     e( 21 - 21) =     16.08548  eV     1   --> B_2  D_4  S_4  
     e( 22 - 22) =     17.35215  eV     1   --> B_1  D_3  S_3  
     e( 23 - 23) =     17.40316  eV     1   --> A_1  D_1  S_1  
     e( 24 - 24) =     18.29460  eV     1   --> A_2  D_2  S_2  
     e( 25 - 25) =     18.44810  eV     1   --> A_1  D_1  S_1  
     e( 26 - 26) =     19.38629  eV     1   --> B_1  D_3  S_3  
     e( 27 - 27) =     19.87831  eV     1   --> B_2  D_4  S_4  
     e( 28 - 28) =     20.77335  eV     1   --> A_1  D_1  S_1  
     e( 29 - 29) =     21.52363  eV     1   --> B_1  D_3  S_3  
     e( 30 - 30) =     22.64347  eV     1   --> A_1  D_1  S_1  
     e( 31 - 31) =     22.77787  eV     1   --> B_2  D_4  S_4  
     e( 32 - 32) =     23.54284  eV     1   --> A_2  D_2  S_2  

 **************************************************************************

 **************************************************************************

                    xk=(   0.65278,   0.02406,   0.00000  )

     Band symmetry, C_2v (mm2)  point group:

     e(  1 -  1) =    -14.59670  eV     1   --> B_2  D_4  S_4  
     e(  2 -  2) =    -14.13596  eV     1   --> A_1  D_1  S_1  
     e(  3 -  3) =    -12.18629  eV     1   --> A_1  D_1  S_1  
     e(  4 -  4) =     -2.09372  eV     1   --> A_2  D_2  S_2  
     e(  5 -  5) =     -1.35784  eV     1   --> B_1  D_3  S_3  
     e(  6 -  6) =      8.92347  eV     1   --> B_1  D_3  S_3  
     e(  7 -  7) =     10.96738  eV     1   --> B_2  D_4  S_4  
     e(  8 -  8) =     11.09832  eV     1   --> A_1  D_1  S_1  
     e(  9 -  9) =     11.62485  eV     1   --> A_1  D_1  S_1  
     e( 10 - 10) =     12.61672  eV     1   --> A_2  D_2  S_2  
     e( 11 - 11) =     12.72334  eV     1   --> B_2  D_4  S_4  
     e( 12 - 12) =     12.81610  eV     1   --> A_1  D_1  S_1  
     e( 13 - 13) =     13.05891  eV     1   --> B_1  D_3  S_3  
     e( 14 - 14) =     13.82982  eV     1   --> A_1  D_1  S_1  
     e( 15 - 15) =     14.10806  eV     1   --> B_2  D_4  S_4  
     e( 16 - 16) =     14.16773  eV     1   --> B_1  D_3  S_3  
     e( 17 - 17) =     14.59395  eV     1   --> A_1  D_1  S_1  
     e( 18 - 18) =     14.79802  eV     1   --> A_2  D_2  S_2  
     e( 19 - 19) =     15.14105  eV     1   --> A_1  D_1  S_1  
     e( 20 - 20) =     15.46449  eV     1   --> B_1  D_3  S_3  
     e( 21 - 21) =     16.31485  eV     1   --> B_2  D_4  S_4  
     e( 22 - 22) =     16.69608  eV     1   --> B_1  D_3  S_3  
     e( 23 - 23) =     17.07600  eV     1   --> A_1  D_1  S_1  
     e( 24 - 24) =     17.92298  eV     1   --> A_1  D_1  S_1  
     e( 25 - 25) =     18.67615  eV     1   --> A_2  D_2  S_2  
[...]
     e(  9 -  9) =      6.60399  eV     1   --> A_1  D_1  S_1  
     e( 10 - 10) =      6.82569  eV     1   --> A_2  D_2  S_2  
     e( 11 - 11) =      7.38898  eV     1   --> A_1  D_1  S_1  
     e( 12 - 12) =      8.94997  eV     1   --> B_2  D_4  S_4  
     e( 13 - 13) =      9.71037  eV     1   --> B_1  D_3  S_3  
     e( 14 - 14) =     10.89001  eV     1   --> A_1  D_1  S_1  
     e( 15 - 15) =     13.04939  eV     1   --> B_2  D_4  S_4  
     e( 16 - 16) =     14.86691  eV     1   --> B_1  D_3  S_3  
     e( 17 - 17) =     16.57577  eV     1   --> A_1  D_1  S_1  
     e( 18 - 18) =     19.09927  eV     1   --> B_1  D_3  S_3  
     e( 19 - 19) =     22.22769  eV     1   --> B_1  D_3  S_3  
     e( 20 - 20) =     22.41969  eV     1   --> A_1  D_1  S_1  
     e( 21 - 21) =     23.39417  eV     1   --> A_2  D_2  S_2  
     e( 22 - 22) =     23.75849  eV     1   --> A_1  D_1  S_1  
     e( 23 - 23) =     24.08870  eV     1   --> B_2  D_4  S_4  
     e( 24 - 24) =     24.74079  eV     1   --> A_1  D_1  S_1  
     e( 25 - 25) =     25.22388  eV     1   --> B_2  D_4  S_4  
     e( 26 - 26) =     25.39684  eV     1   --> B_1  D_3  S_3  
     e( 27 - 27) =     25.72938  eV     1   --> A_1  D_1  S_1  
     e( 28 - 28) =     25.78283  eV     1   --> A_2  D_2  S_2  
     e( 29 - 29) =     27.80509  eV     1   --> B_1  D_3  S_3  
     e( 30 - 30) =     27.94995  eV     1   --> B_2  D_4  S_4  
     e( 31 - 31) =     28.18675  eV     1   --> A_2  D_2  S_2  
     e( 32 - 32) =     28.33556  eV     1   --> A_1  D_1  S_1  

 **************************************************************************

 **************************************************************************

                    xk=(   0.20000,   0.00000,   0.00000  )

     Band symmetry, C_2v (mm2)  point group:

     e(  1 -  1) =    -20.53680  eV     1   --> A_1  D_1  S_1  
     e(  2 -  2) =     -8.49766  eV     1   --> B_1  D_3  S_3  
     e(  3 -  3) =     -7.04472  eV     1   --> B_2  D_4  S_4  
     e(  4 -  4) =     -6.19664  eV     1   --> A_1  D_1  S_1  
     e(  5 -  5) =      2.38698  eV     1   --> A_1  D_1  S_1  
     e(  6 -  6) =      3.21730  eV     1   --> B_1  D_3  S_3  
     e(  7 -  7) =      3.48217  eV     1   --> A_1  D_1  S_1  
     e(  8 -  8) =      5.43604  eV     1   --> B_1  D_3  S_3  
     e(  9 -  9) =      6.26183  eV     1   --> A_1  D_1  S_1  
     e( 10 - 10) =      7.15868  eV     1   --> A_1  D_1  S_1  
     e( 11 - 11) =      7.49277  eV     1   --> A_2  D_2  S_2  
     e( 12 - 12) =      8.58333  eV     1   --> B_2  D_4  S_4  
     e( 13 - 13) =      9.38154  eV     1   --> B_1  D_3  S_3  
     e( 14 - 14) =     10.54549  eV     1   --> A_1  D_1  S_1  
     e( 15 - 15) =     12.36061  eV     1   --> B_2  D_4  S_4  
     e( 16 - 16) =     14.61403  eV     1   --> B_1  D_3  S_3  
     e( 17 - 17) =     16.24109  eV     1   --> A_1  D_1  S_1  
     e( 18 - 18) =     19.86563  eV     1   --> B_1  D_3  S_3  
     e( 19 - 19) =     22.20617  eV     1   --> B_1  D_3  S_3  
     e( 20 - 20) =     22.33261  eV     1   --> A_1  D_1  S_1  
     e( 21 - 21) =     23.45572  eV     1   --> A_1  D_1  S_1  
     e( 22 - 22) =     24.00576  eV     1   --> A_2  D_2  S_2  
     e( 23 - 23) =     25.32062  eV     1   --> B_2  D_4  S_4  
     e( 24 - 24) =     25.81875  eV     1   --> A_1  D_1  S_1  
     e( 25 - 25) =     26.49335  eV     1   --> B_2  D_4  S_4  
     e( 26 - 26) =     26.64379  eV     1   --> B_1  D_3  S_3  
     e( 27 - 27) =     26.76483  eV     1   --> A_1  D_1  S_1  
     e( 28 - 28) =     26.86837  eV     1   --> A_2  D_2  S_2  
     e( 29 - 29) =     28.02602  eV     1   --> B_1  D_3  S_3  
     e( 30 - 30) =     28.94801  eV     1   --> B_1  D_3  S_3  
     e( 31 - 31) =     29.20002  eV     1   --> B_2  D_4  S_4  
     e( 32 - 32) =     29.20550  eV     1   --> A_2  D_2  S_2  

 **************************************************************************

 **************************************************************************

                    xk=(   0.16667,   0.00000,   0.00000  )

     Band symmetry, C_2v (mm2)  point group:

     e(  1 -  1) =    -20.75178  eV     1   --> A_1  D_1  S_1  
     e(  2 -  2) =     -8.75247  eV     1   --> B_1  D_3  S_3  
     e(  3 -  3) =     -6.46252  eV     1   --> B_2  D_4  S_4  
     e(  4 -  4) =     -5.79275  eV     1   --> A_1  D_1  S_1  
     e(  5 -  5) =      2.09155  eV     1   --> A_1  D_1  S_1  
     e(  6 -  6) =      2.92064  eV     1   --> B_1  D_3  S_3  
     e(  7 -  7) =      3.18363  eV     1   --> A_1  D_1  S_1  
     e(  8 -  8) =      5.14350  eV     1   --> B_1  D_3  S_3  
     e(  9 -  9) =      5.97193  eV     1   --> A_1  D_1  S_1  
     e( 10 - 10) =      6.97265  eV     1   --> A_1  D_1  S_1  
     e( 11 - 11) =      8.10313  eV     1   --> A_2  D_2  S_2  
     e( 12 - 12) =      8.16618  eV     1   --> B_2  D_4  S_4  
     e( 13 - 13) =      9.10028  eV     1   --> B_1  D_3  S_3  
     e( 14 - 14) =     10.25272  eV     1   --> A_1  D_1  S_1  
     e( 15 - 15) =     11.80312  eV     1   --> B_2  D_4  S_4  
     e( 16 - 16) =     14.37682  eV     1   --> B_1  D_3  S_3  
     e( 17 - 17) =     15.95576  eV     1   --> A_1  D_1  S_1  
     e( 18 - 18) =     20.35845  eV     1   --> B_1  D_3  S_3  
     e( 19 - 19) =     22.03488  eV     1   --> A_1  D_1  S_1  
     e( 20 - 20) =     22.57614  eV     1   --> B_1  D_3  S_3  
     e( 21 - 21) =     23.14248  eV     1   --> A_1  D_1  S_1  
     e( 22 - 22) =     24.51936  eV     1   --> A_2  D_2  S_2  
     e( 23 - 23) =     26.60825  eV     1   --> B_2  D_4  S_4  
     e( 24 - 24) =     27.02649  eV     1   --> A_1  D_1  S_1  
     e( 25 - 25) =     27.72572  eV     1   --> B_1  D_3  S_3  
     e( 26 - 26) =     27.81968  eV     1   --> B_2  D_4  S_4  
     e( 27 - 27) =     27.94418  eV     1   --> B_1  D_3  S_3  
     e( 28 - 28) =     27.99825  eV     1   --> A_1  D_1  S_1  
     e( 29 - 29) =     28.06075  eV     1   --> A_2  D_2  S_2  
     e( 30 - 30) =     29.87554  eV     1   --> B_1  D_3  S_3  
     e( 31 - 31) =     30.34868  eV     1   --> A_2  D_2  S_2  
     e( 32 - 32) =     30.50368  eV     1   --> B_2  D_4  S_4  

 **************************************************************************

 **************************************************************************

                    xk=(   0.13333,   0.00000,   0.00000  )

     Band symmetry, C_2v (mm2)  point group:

     e(  1 -  1) =    -20.92809  eV     1   --> A_1  D_1  S_1  
     e(  2 -  2) =     -8.96212  eV     1   --> B_1  D_3  S_3  
     e(  3 -  3) =     -5.92606  eV     1   --> B_2  D_4  S_4  
     e(  4 -  4) =     -5.44378  eV     1   --> A_1  D_1  S_1  
     e(  5 -  5) =      1.84979  eV     1   --> A_1  D_1  S_1  
     e(  6 -  6) =      2.67765  eV     1   --> B_1  D_3  S_3  
     e(  7 -  7) =      2.93941  eV     1   --> A_1  D_1  S_1  
     e(  8 -  8) =      4.90364  eV     1   --> B_1  D_3  S_3  
     e(  9 -  9) =      5.73466  eV     1   --> A_1  D_1  S_1  
     e( 10 - 10) =      6.82843  eV     1   --> A_1  D_1  S_1  
     e( 11 - 11) =      7.71988  eV     1   --> B_2  D_4  S_4  
     e( 12 - 12) =      8.63819  eV     1   --> A_2  D_2  S_2  
     e( 13 - 13) =      8.86849  eV     1   --> B_1  D_3  S_3  
     e( 14 - 14) =     10.01214  eV     1   --> A_1  D_1  S_1  
     e( 15 - 15) =     11.38298  eV     1   --> B_2  D_4  S_4  
     e( 16 - 16) =     14.17231  eV     1   --> B_1  D_3  S_3  
     e( 17 - 17) =     15.72074  eV     1   --> A_1  D_1  S_1  
     e( 18 - 18) =     20.50071  eV     1   --> B_1  D_3  S_3  
     e( 19 - 19) =     21.66130  eV     1   --> A_1  D_1  S_1  
     e( 20 - 20) =     22.88717  eV     1   --> A_1  D_1  S_1  
     e( 21 - 21) =     23.38707  eV     1   --> B_1  D_3  S_3  
     e( 22 - 22) =     24.99090  eV     1   --> A_2  D_2  S_2  
     e( 23 - 23) =     27.50804  eV     1   --> B_1  D_3  S_3  
     e( 24 - 24) =     27.94924  eV     1   --> B_2  D_4  S_4  
     e( 25 - 25) =     28.32334  eV     1   --> A_1  D_1  S_1  
     e( 26 - 26) =     29.15885  eV     1   --> B_1  D_3  S_3  
     e( 27 - 27) =     29.20189  eV     1   --> B_2  D_4  S_4  
     e( 28 - 28) =     29.33072  eV     1   --> A_1  D_1  S_1  
     e( 29 - 29) =     29.34831  eV     1   --> A_2  D_2  S_2  
     e( 30 - 30) =     30.32346  eV     1   --> B_1  D_3  S_3  
     e( 31 - 31) =     31.35064  eV     1   --> A_1  D_1  S_1  
     e( 32 - 32) =     31.56440  eV     1   --> A_2  D_2  S_2  

 **************************************************************************

 **************************************************************************

                    xk=(   0.10000,   0.00000,   0.00000  )

     Band symmetry, C_2v (mm2)  point group:

     e(  1 -  1) =    -21.06544  eV     1   --> A_1  D_1  S_1  
     e(  2 -  2) =     -9.12587  eV     1   --> B_1  D_3  S_3  
     e(  3 -  3) =     -5.46032  eV     1   --> B_2  D_4  S_4  
     e(  4 -  4) =     -5.15994  eV     1   --> A_1  D_1  S_1  
     e(  5 -  5) =      1.66176  eV     1   --> A_1  D_1  S_1  
     e(  6 -  6) =      2.48850  eV     1   --> B_1  D_3  S_3  
     e(  7 -  7) =      2.74949  eV     1   --> A_1  D_1  S_1  
     e(  8 -  8) =      4.71678  eV     1   --> B_1  D_3  S_3  
     e(  9 -  9) =      5.55016  eV     1   --> A_1  D_1  S_1  
     e( 10 - 10) =      6.72273  eV     1   --> A_1  D_1  S_1  
     e( 11 - 11) =      7.28808  eV     1   --> B_2  D_4  S_4  
     e( 12 - 12) =      8.68732  eV     1   --> B_1  D_3  S_3  
     e( 13 - 13) =      9.07918  eV     1   --> A_2  D_2  S_2  
     e( 14 - 14) =      9.82421  eV     1   --> A_1  D_1  S_1  
     e( 15 - 15) =     11.08727  eV     1   --> B_2  D_4  S_4  
     e( 16 - 16) =     14.00849  eV     1   --> B_1  D_3  S_3  
     e( 17 - 17) =     15.53685  eV     1   --> A_1  D_1  S_1  
     e( 18 - 18) =     20.48124  eV     1   --> B_1  D_3  S_3  
     e( 19 - 19) =     21.29923  eV     1   --> A_1  D_1  S_1  
     e( 20 - 20) =     22.69662  eV     1   --> A_1  D_1  S_1  
     e( 21 - 21) =     24.41196  eV     1   --> B_1  D_3  S_3  
     e( 22 - 22) =     25.45779  eV     1   --> A_2  D_2  S_2  
     e( 23 - 23) =     27.34248  eV     1   --> B_1  D_3  S_3  
     e( 24 - 24) =     29.34077  eV     1   --> B_2  D_4  S_4  
     e( 25 - 25) =     29.68354  eV     1   --> A_1  D_1  S_1  
     e( 26 - 26) =     29.79274  eV     1   --> B_1  D_3  S_3  
     e( 27 - 27) =     30.63896  eV     1   --> B_2  D_4  S_4  
     e( 28 - 28) =     30.71408  eV     1   --> A_2  D_2  S_2  
     e( 29 - 29) =     30.73089  eV     1   --> A_1  D_1  S_1  
     e( 30 - 30) =     31.11533  eV     1   --> B_1  D_3  S_3  
     e( 31 - 31) =     31.17958  eV     1   --> A_1  D_1  S_1  
     e( 32 - 32) =     31.65695  eV     1   --> A_2  D_2  S_2  

 **************************************************************************

 **************************************************************************

                    xk=(   0.06667,   0.00000,   0.00000  )

     Band symmetry, C_2v (mm2)  point group:

     e(  1 -  1) =    -21.16368  eV     1   --> A_1  D_1  S_1  
     e(  2 -  2) =     -9.24319  eV     1   --> B_1  D_3  S_3  
     e(  3 -  3) =     -5.09469  eV     1   --> B_2  D_4  S_4  
     e(  4 -  4) =     -4.95013  eV     1   --> A_1  D_1  S_1  
     e(  5 -  5) =      1.52747  eV     1   --> A_1  D_1  S_1  
     e(  6 -  6) =      2.35332  eV     1   --> B_1  D_3  S_3  
     e(  7 -  7) =      2.61387  eV     1   --> A_1  D_1  S_1  
     e(  8 -  8) =      4.58317  eV     1   --> B_1  D_3  S_3  
     e(  9 -  9) =      5.41843  eV     1   --> A_1  D_1  S_1  
     e( 10 - 10) =      6.65146  eV     1   --> A_1  D_1  S_1  
     e( 11 - 11) =      6.92528  eV     1   --> B_2  D_4  S_4  
     e( 12 - 12) =      8.55749  eV     1   --> B_1  D_3  S_3  
     e( 13 - 13) =      9.40875  eV     1   --> A_2  D_2  S_2  
     e( 14 - 14) =      9.68943  eV     1   --> A_1  D_1  S_1  
     e( 15 - 15) =     10.89483  eV     1   --> B_2  D_4  S_4  
     e( 16 - 16) =     13.88944  eV     1   --> B_1  D_3  S_3  
     e( 17 - 17) =     15.40483  eV     1   --> A_1  D_1  S_1  
     e( 18 - 18) =     20.42721  eV     1   --> B_1  D_3  S_3  
     e( 19 - 19) =     21.00636  eV     1   --> A_1  D_1  S_1  
     e( 20 - 20) =     22.56465  eV     1   --> A_1  D_1  S_1  
     e( 21 - 21) =     25.44255  eV     1   --> B_1  D_3  S_3  
     e( 22 - 22) =     25.91961  eV     1   --> A_2  D_2  S_2  
     e( 23 - 23) =     27.25831  eV     1   --> B_1  D_3  S_3  
     e( 24 - 24) =     29.86515  eV     1   --> B_1  D_3  S_3  
     e( 25 - 25) =     30.77768  eV     1   --> B_2  D_4  S_4  
     e( 26 - 26) =     30.79824  eV     1   --> A_2  D_2  S_2  
     e( 27 - 27) =     31.03877  eV     1   --> A_1  D_1  S_1  
     e( 28 - 28) =     31.10231  eV     1   --> A_1  D_1  S_1  
     e( 29 - 29) =     32.12887  eV     1   --> B_2  D_4  S_4  
     e( 30 - 30) =     32.14084  eV     1   --> A_2  D_2  S_2  
     e( 31 - 31) =     32.18287  eV     1   --> A_1  D_1  S_1  
     e( 32 - 32) =     32.47594  eV     1   --> B_1  D_3  S_3  

 **************************************************************************

 **************************************************************************

                    xk=(   0.03333,   0.00000,   0.00000  )

     Band symmetry, C_2v (mm2)  point group:

     e(  1 -  1) =    -21.22266  eV     1   --> A_1  D_1  S_1  
     e(  2 -  2) =     -9.31372  eV     1   --> B_1  D_3  S_3  
     e(  3 -  3) =     -4.85926  eV     1   --> B_2  D_4  S_4  
     e(  4 -  4) =     -4.82128  eV     1   --> A_1  D_1  S_1  
     e(  5 -  5) =      1.44691  eV     1   --> A_1  D_1  S_1  
     e(  6 -  6) =      2.27218  eV     1   --> B_1  D_3  S_3  
     e(  7 -  7) =      2.53251  eV     1   --> A_1  D_1  S_1  
     e(  8 -  8) =      4.50295  eV     1   --> B_1  D_3  S_3  
     e(  9 -  9) =      5.33943  eV     1   --> A_1  D_1  S_1  
     e( 10 - 10) =      6.61077  eV     1   --> A_1  D_1  S_1  
     e( 11 - 11) =      6.68288  eV     1   --> B_2  D_4  S_4  
     e( 12 - 12) =      8.47944  eV     1   --> B_1  D_3  S_3  
     e( 13 - 13) =      9.60831  eV     1   --> A_1  D_1  S_1  
     e( 14 - 14) =      9.61271  eV     1   --> A_2  D_2  S_2  
     e( 15 - 15) =     10.78708  eV     1   --> B_2  D_4  S_4  
     e( 16 - 16) =     13.81731  eV     1   --> B_1  D_3  S_3  
     e( 17 - 17) =     15.32531  eV     1   --> A_1  D_1  S_1  
     e( 18 - 18) =     20.38448  eV     1   --> B_1  D_3  S_3  
     e( 19 - 19) =     20.81797  eV     1   --> A_1  D_1  S_1  
     e( 20 - 20) =     22.48679  eV     1   --> A_1  D_1  S_1  
     e( 21 - 21) =     26.22537  eV     1   --> B_1  D_3  S_3  
     e( 22 - 22) =     26.31220  eV     1   --> A_2  D_2  S_2  
     e( 23 - 23) =     27.31197  eV     1   --> B_1  D_3  S_3  
     e( 24 - 24) =     29.86297  eV     1   --> B_1  D_3  S_3  
     e( 25 - 25) =     30.13017  eV     1   --> A_2  D_2  S_2  
     e( 26 - 26) =     30.98135  eV     1   --> A_1  D_1  S_1  
     e( 27 - 27) =     32.24268  eV     1   --> B_2  D_4  S_4  
     e( 28 - 28) =     32.31463  eV     1   --> B_1  D_3  S_3  
     e( 29 - 29) =     32.47948  eV     1   --> A_1  D_1  S_1  
     e( 30 - 30) =     33.58994  eV     1   --> A_2  D_2  S_2  
     e( 31 - 31) =     33.60118  eV     1   --> A_1  D_1  S_1  
     e( 32 - 32) =     33.65879  eV     1   --> B_2  D_4  S_4  

 **************************************************************************

 **************************************************************************

                    xk=(   0.00000,   0.00000,   0.00000  )

     point group D_6h(6/mmm)
     there are 12 classes
     the character table:

       E     2C6   2C3   C2    3C2'  3C2'' i     2S3   2S6   s_h   3s_d  3s_v 
A_1g   1.00  1.00  1.00  1.00  1.00  1.00  1.00  1.00  1.00  1.00  1.00  1.00
A_2g   1.00  1.00  1.00  1.00 -1.00 -1.00  1.00  1.00  1.00  1.00 -1.00 -1.00
B_1g   1.00 -1.00  1.00 -1.00  1.00 -1.00  1.00 -1.00  1.00 -1.00  1.00 -1.00
B_2g   1.00 -1.00  1.00 -1.00 -1.00  1.00  1.00 -1.00  1.00 -1.00 -1.00  1.00
E_1g   2.00  1.00 -1.00 -2.00  0.00  0.00  2.00  1.00 -1.00 -2.00  0.00  0.00
E_2g   2.00 -1.00 -1.00  2.00  0.00  0.00  2.00 -1.00 -1.00  2.00  0.00  0.00
A_1u   1.00  1.00  1.00  1.00  1.00  1.00 -1.00 -1.00 -1.00 -1.00 -1.00 -1.00
A_2u   1.00  1.00  1.00  1.00 -1.00 -1.00 -1.00 -1.00 -1.00 -1.00  1.00  1.00
B_1u   1.00 -1.00  1.00 -1.00  1.00 -1.00 -1.00  1.00 -1.00  1.00 -1.00  1.00
B_2u   1.00 -1.00  1.00 -1.00 -1.00  1.00 -1.00  1.00 -1.00  1.00  1.00 -1.00
E_1u   2.00  1.00 -1.00 -2.00  0.00  0.00 -2.00 -1.00  1.00  2.00  0.00  0.00
E_2u   2.00 -1.00 -1.00  2.00  0.00  0.00 -2.00  1.00  1.00 -2.00  0.00  0.00

     the symmetry operations in each class and the name of the first element:

     E        1
                                                                 
     2C6      5    6
                                                                 
     2C3      7    8
                                                                 
     C2       2
                                                                 
     3C2'     4   12   11
                                                                 
     3C2''    3    9   10
                                                                 
     i       13
                                                                 
     2S3     17   18
                                                                 
     2S6     19   20
                                                                 
     s_h     14
                                                                 
     3s_d    16   24   23
                                                                 
     3s_v    15   21   22
                                                                 

     Band symmetry, D_6h(6/mmm) point group:

     e(  1 -  1) =    -21.24235  eV     1   --> A_1g           
     e(  2 -  2) =     -9.33726  eV     1   --> A_2u           
     e(  3 -  3) =     -4.77787  eV     1   -->   ?
     e(  4 -  4) =     -4.77775  eV     1   -->   ?
     e(  5 -  5) =      1.42005  eV     1   --> A_1g           
     e(  6 -  6) =      2.24513  eV     1   --> A_2u           
     e(  7 -  7) =      2.50539  eV     1   --> A_1g           
     e(  8 -  8) =      4.47620  eV     1   --> A_2u           
     e(  9 -  9) =      5.31311  eV     1   --> A_1g           
     e( 10 - 10) =      6.59746  eV     1   -->   ?
     e( 11 - 11) =      6.59760  eV     1   -->   ?
     e( 12 - 12) =      8.45339  eV     1   --> A_2u           
     e( 13 - 13) =      9.58123  eV     1   --> A_1g           
     e( 14 - 14) =      9.68177  eV     1   --> B_1g           
     e( 15 - 15) =     10.75242  eV     1   --> B_2u           
     e( 16 - 16) =     13.79316  eV     1   --> A_2u           
     e( 17 - 17) =     15.29874  eV     1   --> A_1g           
     e( 18 - 18) =     20.36890  eV     1   --> A_2u           
     e( 19 - 19) =     20.75313  eV     1   --> A_1g           
     e( 20 - 20) =     22.46102  eV     1   --> A_1g           
     e( 21 - 22) =     26.48097  eV     2   --> E_2u           
     e( 23 - 23) =     27.42770  eV     1   --> A_2u           
     e( 24 - 25) =     29.86491  eV     2   --> E_1g           
     e( 26 - 26) =     30.95706  eV     1   --> A_1g           
     e( 27 - 27) =     31.85240  eV     1   --> A_2u           
     e( 28 - 29) =     33.43694  eV     2   --> E_2g           
     e( 30 - 31) =     33.92084  eV     2   --> E_1u           
     e( 32 - 32) =     34.35146  eV     1   --> B_2u           

 **************************************************************************
 
     BANDS        :     14.51s CPU     24.85s WALL

 
   This run was terminated on:  15:39:44   9Jun2022            

=------------------------------------------------------------------------------=
   JOB DONE.
=------------------------------------------------------------------------------=
