
     Program BANDS v.7.0 starts on 24Jun2022 at 22:49:58 

     This program is part of the open-source Quantum ESPRESSO suite
     for quantum simulation of materials; please cite
         "P. Giannozzi et al., J. Phys.:Condens. Matter 21 395502 (2009);
         "P. Giannozzi et al., J. Phys.:Condens. Matter 29 465901 (2017);
         "P. Giannozzi et al., J. Chem. Phys. 152 154105 (2020);
          URL http://www.quantum-espresso.org", 
     in publications or presentations arising from this work. More details at
     http://www.quantum-espresso.org/quote

     Parallel version (MPI & OpenMP), running on      28 processor cores
     Number of MPI processes:                28
     Threads/MPI process:                     1

     MPI processes distributed on     1 nodes
     K-points division:     npool     =       7
     R & G space division:  proc/nbgrp/npool/nimage =       4
     54516 MiB available memory on the printing compute node when the environment starts
 

     Reading xml data from directory:

     ./graphene.save/
     file C.pbe-n-kjpaw_psl.1.0.0.UPF: wavefunction(s)  2S 2P renormalized

     IMPORTANT: XC functional enforced from input :
     Exchange-correlation= PBE
                           (   1   4   3   4   0   0   0)
     Any further DFT definition will be discarded
     Please, verify this is what you really want

 
     Parallelization info
     --------------------
     sticks:   dense  smooth     PW     G-vecs:    dense   smooth      PW
     Min         180     118     37                23682    12854    2173
     Max         181     119     38                23699    12877    2184
     Sum         721     475    151                94757    51479    8723
 
     Using Slab Decomposition
 
 ----2D----2D----2D----2D----2D----2D----2D----2D----2D----2D----2D----2D
  The code is running with the 2D cutoff
  Please refer to:
  Sohier, T., Calandra, M., & Mauri, F. (2017), 
  Density functional perturbation theory for gated two-dimensional heterostructu
 res:
  Theoretical developments and application to flexural phonons in graphene.
  Physical Review B, 96(7), 75448. https://doi.org/10.1103/PhysRevB.96.075448
 ----2D----2D----2D----2D----2D----2D----2D----2D----2D----2D----2D----2D

     Check: negative core charge=   -0.000001

     negative rho (up, down):  7.892E-05 0.000E+00
     Reading collected, re-writing distributed wavefunctions
     high-symmetry point:  0.0000 0.0000 0.0000   x coordinate   0.0000
     high-symmetry point:  0.5000 0.2887 0.0000   x coordinate   0.5774
     high-symmetry point:  0.6667 0.0000 0.0000   x coordinate   0.9107
     high-symmetry point:  0.0000 0.0000 0.0000   x coordinate   1.5774

     Plottable bands (eV) written to file graphene.bands.dat.gnu
     Bands written to file graphene.bands.dat

 **************************************************************************

                    xk=(   0.00000,   0.00000,   0.00000  )

     point group D_6h(6/mmm)
     there are 12 classes
     the character table:

       E     2C6   2C3   C2    3C2'  3C2'' i     2S3   2S6   s_h   3s_d  3s_v 
A_1g   1.00  1.00  1.00  1.00  1.00  1.00  1.00  1.00  1.00  1.00  1.00  1.00
A_2g   1.00  1.00  1.00  1.00 -1.00 -1.00  1.00  1.00  1.00  1.00 -1.00 -1.00
B_1g   1.00 -1.00  1.00 -1.00  1.00 -1.00  1.00 -1.00  1.00 -1.00  1.00 -1.00
B_2g   1.00 -1.00  1.00 -1.00 -1.00  1.00  1.00 -1.00  1.00 -1.00 -1.00  1.00
E_1g   2.00  1.00 -1.00 -2.00  0.00  0.00  2.00  1.00 -1.00 -2.00  0.00  0.00
E_2g   2.00 -1.00 -1.00  2.00  0.00  0.00  2.00 -1.00 -1.00  2.00  0.00  0.00
A_1u   1.00  1.00  1.00  1.00  1.00  1.00 -1.00 -1.00 -1.00 -1.00 -1.00 -1.00
A_2u   1.00  1.00  1.00  1.00 -1.00 -1.00 -1.00 -1.00 -1.00 -1.00  1.00  1.00
B_1u   1.00 -1.00  1.00 -1.00  1.00 -1.00 -1.00  1.00 -1.00  1.00 -1.00  1.00
B_2u   1.00 -1.00  1.00 -1.00 -1.00  1.00 -1.00  1.00 -1.00  1.00  1.00 -1.00
E_1u   2.00  1.00 -1.00 -2.00  0.00  0.00 -2.00 -1.00  1.00  2.00  0.00  0.00
E_2u   2.00 -1.00 -1.00  2.00  0.00  0.00 -2.00  1.00  1.00 -2.00  0.00  0.00

     the symmetry operations in each class and the name of the first element:

     E        1
                                                                 
     2C6      5    6
                                                                 
     2C3      7    8
                                                                 
     C2       2
                                                                 
     3C2'     4   12   11
                                                                 
     3C2''    3    9   10
                                                                 
     i       13
                                                                 
     2S3     17   18
                                                                 
     2S6     19   20
                                                                 
     s_h     14
                                                                 
     3s_d    16   24   23
                                                                 
     3s_v    15   21   22
                                                                 

     Band symmetry, D_6h(6/mmm) point group:

     e(  1 -  1) =    -23.76252  eV     1   --> A_1g           
     e(  2 -  2) =    -11.85874  eV     1   --> A_2u           
     e(  3 -  4) =     -7.30058  eV     2   --> E_2g           
     e(  5 -  5) =     -0.97012  eV     1   --> A_1g           
     e(  6 -  6) =     -0.09053  eV     1   --> A_2u           
     e(  7 -  7) =      1.60053  eV     1   --> A_1g           
     e(  8 -  8) =      2.52023  eV     1   --> A_2u           
     e(  9 - 10) =      4.07199  eV     2   --> E_1u           
     e( 11 - 11) =      5.11752  eV     1   --> A_1g           
     e( 12 - 12) =      6.80347  eV     1   --> A_2u           
     e( 13 - 13) =      7.15762  eV     1   --> B_1g           
     e( 14 - 14) =      8.22670  eV     1   --> B_2u           
     e( 15 - 15) =      9.68702  eV     1   --> A_1g           
     e( 16 - 16) =     12.37814  eV     1   --> A_2u           
     e( 17 - 17) =     15.21982  eV     1   --> A_1g           
     e( 18 - 18) =     18.22710  eV     1   --> A_1g           
     e( 19 - 19) =     19.08428  eV     1   --> A_2u           
     e( 20 - 20) =     21.98287  eV     1   --> A_1g           
     e( 21 - 22) =     23.95080  eV     2   --> E_2u           
     e( 23 - 23) =     25.86517  eV     1   --> A_2u           
     e( 24 - 25) =     27.33762  eV     2   --> E_1g           
     e( 26 - 26) =     29.97727  eV     1   --> A_2u           
     e( 27 - 27) =     30.20878  eV     1   --> A_1g           
     e( 28 - 28) =     30.93607  eV     1   -->   ?

 **************************************************************************

 **************************************************************************

                    xk=(   0.01250,   0.00722,   0.00000  )

     point group C_2v (mm2) 
     there are  4 classes
     the character table:

       E     C2    s_v   s_v' 
A_1    1.00  1.00  1.00  1.00
A_2    1.00  1.00 -1.00 -1.00
B_1    1.00 -1.00  1.00 -1.00
B_2    1.00 -1.00 -1.00  1.00

     the symmetry operations in each class and the name of the first element:

     E        1
                                                                 
     C2       2
                                                                 
     s_v      3
                                                                 
     s_v'     4
                                                                 

     Band symmetry, C_2v (mm2)  point group:

     e(  1 -  1) =    -23.75883  eV     1   --> A_1  D_1  S_1  
     e(  2 -  2) =    -11.85433  eV     1   --> B_2  D_4  S_4  
     e(  3 -  3) =     -7.31599  eV     1   --> A_1  D_1  S_1  
     e(  4 -  4) =     -7.30874  eV     1   --> B_1  D_3  S_3  
     e(  5 -  5) =     -0.96512  eV     1   --> A_1  D_1  S_1  
     e(  6 -  6) =     -0.08547  eV     1   --> B_2  D_4  S_4  
     e(  7 -  7) =      1.60556  eV     1   --> A_1  D_1  S_1  
     e(  8 -  8) =      2.52523  eV     1   --> B_2  D_4  S_4  
     e(  9 -  9) =      4.07422  eV     1   --> A_1  D_1  S_1  
     e( 10 - 10) =      4.08819  eV     1   --> B_1  D_3  S_3  
     e( 11 - 11) =      5.12273  eV     1   --> A_1  D_1  S_1  
     e( 12 - 12) =      6.80831  eV     1   --> B_2  D_4  S_4  
     e( 13 - 13) =      7.14463  eV     1   --> B_2  D_4  S_4  
     e( 14 - 14) =      8.23315  eV     1   --> A_1  D_1  S_1  
     e( 15 - 15) =      9.69206  eV     1   --> A_1  D_1  S_1  
     e( 16 - 16) =     12.38256  eV     1   --> B_2  D_4  S_4  
     e( 17 - 17) =     15.22480  eV     1   --> A_1  D_1  S_1  
     e( 18 - 18) =     18.23930  eV     1   --> A_1  D_1  S_1  
     e( 19 - 19) =     19.08643  eV     1   --> B_2  D_4  S_4  
     e( 20 - 20) =     21.98770  eV     1   --> A_1  D_1  S_1  
     e( 21 - 21) =     23.90790  eV     1   --> A_2  D_2  S_2  
     e( 22 - 22) =     23.91593  eV     1   --> B_2  D_4  S_4  
     e( 23 - 23) =     25.79359  eV     1   --> B_2  D_4  S_4  
     e( 24 - 24) =     27.38948  eV     1   --> A_2  D_2  S_2  
     e( 25 - 25) =     27.41156  eV     1   --> B_2  D_4  S_4  
     e( 26 - 26) =     30.03558  eV     1   --> B_2  D_4  S_4  
     e( 27 - 27) =     30.21293  eV     1   --> A_1  D_1  S_1  
     e( 28 - 28) =     30.53643  eV     1   --> A_1  D_1  S_1  

 **************************************************************************

 **************************************************************************

                    xk=(   0.02500,   0.01443,   0.00000  )

     Band symmetry, C_2v (mm2)  point group:

     e(  1 -  1) =    -23.74777  eV     1   --> A_1  D_1  S_1  
     e(  2 -  2) =    -11.84109  eV     1   --> B_2  D_4  S_4  
     e(  3 -  3) =     -7.36201  eV     1   --> A_1  D_1  S_1  
     e(  4 -  4) =     -7.33304  eV     1   --> B_1  D_3  S_3  
     e(  5 -  5) =     -0.95012  eV     1   --> A_1  D_1  S_1  
     e(  6 -  6) =     -0.07032  eV     1   --> B_2  D_4  S_4  
     e(  7 -  7) =      1.62065  eV     1   --> A_1  D_1  S_1  
     e(  8 -  8) =      2.54024  eV     1   --> B_2  D_4  S_4  
     e(  9 -  9) =      4.08064  eV     1   --> A_1  D_1  S_1  
     e( 10 - 10) =      4.13659  eV     1   --> B_1  D_3  S_3  
     e( 11 - 11) =      5.13835  eV     1   --> A_1  D_1  S_1  
     e( 12 - 12) =      6.82282  eV     1   --> B_2  D_4  S_4  
     e( 13 - 13) =      7.10578  eV     1   --> B_2  D_4  S_4  
     e( 14 - 14) =      8.25263  eV     1   --> A_1  D_1  S_1  
     e( 15 - 15) =      9.70717  eV     1   --> A_1  D_1  S_1  
     e( 16 - 16) =     12.39579  eV     1   --> B_2  D_4  S_4  
     e( 17 - 17) =     15.23973  eV     1   --> A_1  D_1  S_1  
     e( 18 - 18) =     18.27568  eV     1   --> A_1  D_1  S_1  
     e( 19 - 19) =     19.09262  eV     1   --> B_2  D_4  S_4  
     e( 20 - 20) =     22.00219  eV     1   --> A_1  D_1  S_1  
     e( 21 - 21) =     23.78648  eV     1   --> A_2  D_2  S_2  
     e( 22 - 22) =     23.80513  eV     1   --> B_2  D_4  S_4  
     e( 23 - 23) =     25.63849  eV     1   --> B_2  D_4  S_4  
     e( 24 - 24) =     27.53767  eV     1   --> A_2  D_2  S_2  
     e( 25 - 25) =     27.57879  eV     1   --> B_2  D_4  S_4  
     e( 26 - 26) =     29.87101  eV     1   --> A_1  D_1  S_1  
     e( 27 - 27) =     30.20938  eV     1   --> B_2  D_4  S_4  
     e( 28 - 28) =     30.22682  eV     1   --> A_1  D_1  S_1  

 **************************************************************************

 **************************************************************************

                    xk=(   0.03750,   0.02165,   0.00000  )

     Band symmetry, C_2v (mm2)  point group:

     e(  1 -  1) =    -23.72934  eV     1   --> A_1  D_1  S_1  
     e(  2 -  2) =    -11.81904  eV     1   --> B_2  D_4  S_4  
     e(  3 -  3) =     -7.43793  eV     1   --> A_1  D_1  S_1  
     e(  4 -  4) =     -7.37300  eV     1   --> B_1  D_3  S_3  
     e(  5 -  5) =     -0.92512  eV     1   --> A_1  D_1  S_1  
     e(  6 -  6) =     -0.04506  eV     1   --> B_2  D_4  S_4  
     e(  7 -  7) =      1.64580  eV     1   --> A_1  D_1  S_1  
     e(  8 -  8) =      2.56525  eV     1   --> B_2  D_4  S_4  
     e(  9 -  9) =      4.09049  eV     1   --> A_1  D_1  S_1  
     e( 10 - 10) =      4.21670  eV     1   --> B_1  D_3  S_3  
     e( 11 - 11) =      5.16435  eV     1   --> A_1  D_1  S_1  
     e( 12 - 12) =      6.84699  eV     1   --> B_2  D_4  S_4  
     e( 13 - 13) =      7.04142  eV     1   --> B_2  D_4  S_4  
     e( 14 - 14) =      8.28551  eV     1   --> A_1  D_1  S_1  
     e( 15 - 15) =      9.73235  eV     1   --> A_1  D_1  S_1  
     e( 16 - 16) =     12.41780  eV     1   --> B_2  D_4  S_4  
     e( 17 - 17) =     15.26458  eV     1   --> A_1  D_1  S_1  
     e( 18 - 18) =     18.33568  eV     1   --> A_1  D_1  S_1  
     e( 19 - 19) =     19.10212  eV     1   --> B_2  D_4  S_4  
     e( 20 - 20) =     22.02636  eV     1   --> A_1  D_1  S_1  
     e( 21 - 21) =     23.60373  eV     1   --> A_2  D_2  S_2  
     e( 22 - 22) =     23.60792  eV     1   --> B_2  D_4  S_4  
     e( 23 - 23) =     25.49278  eV     1   --> B_2  D_4  S_4  
     e( 24 - 24) =     27.75732  eV     1   --> B_2  D_4  S_4  
     e( 25 - 25) =     27.76451  eV     1   --> A_2  D_2  S_2  
     e( 26 - 26) =     29.16330  eV     1   --> A_1  D_1  S_1  
     e( 27 - 27) =     30.00744  eV     1   --> B_1  D_3  S_3  
     e( 28 - 28) =     30.24764  eV     1   --> A_1  D_1  S_1  

 **************************************************************************

 **************************************************************************

                    xk=(   0.05000,   0.02887,   0.00000  )

     Band symmetry, C_2v (mm2)  point group:

     e(  1 -  1) =    -23.70354  eV     1   --> A_1  D_1  S_1  
     e(  2 -  2) =    -11.78818  eV     1   --> B_2  D_4  S_4  
     e(  3 -  3) =     -7.54269  eV     1   --> A_1  D_1  S_1  
     e(  4 -  4) =     -7.42786  eV     1   --> B_1  D_3  S_3  
     e(  5 -  5) =     -0.89011  eV     1   --> A_1  D_1  S_1  
     e(  6 -  6) =     -0.00971  eV     1   --> B_2  D_4  S_4  
     e(  7 -  7) =      1.68102  eV     1   --> A_1  D_1  S_1  
     e(  8 -  8) =      2.60025  eV     1   --> B_2  D_4  S_4  
     e(  9 -  9) =      4.10259  eV     1   --> A_1  D_1  S_1  
     e( 10 - 10) =      4.32769  eV     1   --> B_1  D_3  S_3  
     e( 11 - 11) =      5.20064  eV     1   --> A_1  D_1  S_1  
     e( 12 - 12) =      6.88071  eV     1   --> B_2  D_4  S_4  
     e( 13 - 13) =      6.95218  eV     1   --> B_2  D_4  S_4  
     e( 14 - 14) =      8.33233  eV     1   --> A_1  D_1  S_1  
     e( 15 - 15) =      9.76757  eV     1   --> A_1  D_1  S_1  
     e( 16 - 16) =     12.44850  eV     1   --> B_2  D_4  S_4  
     e( 17 - 17) =     15.29931  eV     1   --> A_1  D_1  S_1  
     e( 18 - 18) =     18.41830  eV     1   --> A_1  D_1  S_1  
     e( 19 - 19) =     19.11356  eV     1   --> B_2  D_4  S_4  
     e( 20 - 20) =     22.06026  eV     1   --> A_1  D_1  S_1  
     e( 21 - 21) =     23.32719  eV     1   --> B_2  D_4  S_4  
     e( 22 - 22) =     23.37841  eV     1   --> A_2  D_2  S_2  
     e( 23 - 23) =     25.40383  eV     1   --> B_2  D_4  S_4  
     e( 24 - 24) =     27.90393  eV     1   --> B_2  D_4  S_4  
     e( 25 - 25) =     28.05023  eV     1   --> A_2  D_2  S_2  
     e( 26 - 26) =     28.44558  eV     1   --> A_1  D_1  S_1  
     e( 27 - 27) =     29.64710  eV     1   --> B_1  D_3  S_3  
     e( 28 - 28) =     29.95945  eV     1   --> B_2  D_4  S_4  

 **************************************************************************

 **************************************************************************

                    xk=(   0.06250,   0.03608,   0.00000  )

     Band symmetry, C_2v (mm2)  point group:

     e(  1 -  1) =    -23.67038  eV     1   --> A_1  D_1  S_1  
     e(  2 -  2) =    -11.74853  eV     1   --> B_2  D_4  S_4  
     e(  3 -  3) =     -7.67484  eV     1   --> A_1  D_1  S_1  
     e(  4 -  4) =     -7.49658  eV     1   --> B_1  D_3  S_3  
     e(  5 -  5) =     -0.84510  eV     1   --> A_1  D_1  S_1  
     e(  6 -  6) =      0.03574  eV     1   --> B_2  D_4  S_4  
     e(  7 -  7) =      1.72630  eV     1   --> A_1  D_1  S_1  
     e(  8 -  8) =      2.64525  eV     1   --> B_2  D_4  S_4  
     e(  9 -  9) =      4.11549  eV     1   --> A_1  D_1  S_1  
     e( 10 - 10) =      4.46847  eV     1   --> B_1  D_3  S_3  
     e( 11 - 11) =      5.24715  eV     1   --> A_1  D_1  S_1  
     e( 12 - 12) =      6.83821  eV     1   --> B_2  D_4  S_4  
     e( 13 - 13) =      6.92456  eV     1   --> B_2  D_4  S_4  
     e( 14 - 14) =      8.39374  eV     1   --> A_1  D_1  S_1  
     e( 15 - 15) =      9.81282  eV     1   --> A_1  D_1  S_1  
     e( 16 - 16) =     12.48779  eV     1   --> B_2  D_4  S_4  
     e( 17 - 17) =     15.34385  eV     1   --> A_1  D_1  S_1  
     e( 18 - 18) =     18.52215  eV     1   --> A_1  D_1  S_1  
     e( 19 - 19) =     19.12478  eV     1   --> B_2  D_4  S_4  
     e( 20 - 20) =     22.10394  eV     1   --> A_1  D_1  S_1  
     e( 21 - 21) =     22.98463  eV     1   --> B_2  D_4  S_4  
     e( 22 - 22) =     23.12594  eV     1   --> A_2  D_2  S_2  
     e( 23 - 23) =     25.37588  eV     1   --> B_2  D_4  S_4  
     e( 24 - 24) =     27.72837  eV     1   --> A_1  D_1  S_1  
     e( 25 - 25) =     28.00026  eV     1   --> B_2  D_4  S_4  
     e( 26 - 26) =     28.37744  eV     1   --> A_2  D_2  S_2  
     e( 27 - 27) =     29.26120  eV     1   --> B_2  D_4  S_4  
     e( 28 - 28) =     29.29355  eV     1   --> B_1  D_3  S_3  

 **************************************************************************

 **************************************************************************

                    xk=(   0.07500,   0.04330,   0.00000  )

     Band symmetry, C_2v (mm2)  point group:

     e(  1 -  1) =    -23.62986  eV     1   --> A_1  D_1  S_1  
     e(  2 -  2) =    -11.70012  eV     1   --> B_2  D_4  S_4  
     e(  3 -  3) =     -7.83268  eV     1   --> A_1  D_1  S_1  
     e(  4 -  4) =     -7.57797  eV     1   --> B_1  D_3  S_3  
     e(  5 -  5) =     -0.79009  eV     1   --> A_1  D_1  S_1  
     e(  6 -  6) =      0.09127  eV     1   --> B_2  D_4  S_4  
     e(  7 -  7) =      1.78165  eV     1   --> A_1  D_1  S_1  
     e(  8 -  8) =      2.70022  eV     1   --> B_2  D_4  S_4  
     e(  9 -  9) =      4.12762  eV     1   --> A_1  D_1  S_1  
     e( 10 - 10) =      4.63774  eV     1   --> B_1  D_3  S_3  
     e( 11 - 11) =      5.30375  eV     1   --> A_1  D_1  S_1  
     e( 12 - 12) =      6.70137  eV     1   --> B_2  D_4  S_4  
     e( 13 - 13) =      6.97757  eV     1   --> B_2  D_4  S_4  
     e( 14 - 14) =      8.47037  eV     1   --> A_1  D_1  S_1  
     e( 15 - 15) =      9.86807  eV     1   --> A_1  D_1  S_1  
     e( 16 - 16) =     12.53553  eV     1   --> B_2  D_4  S_4  
     e( 17 - 17) =     15.39815  eV     1   --> A_1  D_1  S_1  
     e( 18 - 18) =     18.64536  eV     1   --> A_1  D_1  S_1  
     e( 19 - 19) =     19.13243  eV     1   --> B_2  D_4  S_4  
     e( 20 - 20) =     22.15747  eV     1   --> A_1  D_1  S_1  
     e( 21 - 21) =     22.60867  eV     1   --> B_2  D_4  S_4  
     e( 22 - 22) =     22.85743  eV     1   --> A_2  D_2  S_2  
     e( 23 - 23) =     25.39447  eV     1   --> B_2  D_4  S_4  
     e( 24 - 24) =     27.01645  eV     1   --> A_1  D_1  S_1  
     e( 25 - 25) =     27.99562  eV     1   --> B_2  D_4  S_4  
     e( 26 - 26) =     28.63086  eV     1   --> B_2  D_4  S_4  
     e( 27 - 27) =     28.73069  eV     1   --> A_2  D_2  S_2  
     e( 28 - 28) =     28.94818  eV     1   --> B_1  D_3  S_3  

 **************************************************************************

 **************************************************************************

                    xk=(   0.08750,   0.05052,   0.00000  )

     Band symmetry, C_2v (mm2)  point group:

     e(  1 -  1) =    -23.58201  eV     1   --> A_1  D_1  S_1  
     e(  2 -  2) =    -11.64297  eV     1   --> B_2  D_4  S_4  
     e(  3 -  3) =     -8.01433  eV     1   --> A_1  D_1  S_1  
     e(  4 -  4) =     -7.67070  eV     1   --> B_1  D_3  S_3  
     e(  5 -  5) =     -0.72507  eV     1   --> A_1  D_1  S_1  
     e(  6 -  6) =      0.15689  eV     1   --> B_2  D_4  S_4  
     e(  7 -  7) =      1.84706  eV     1   --> A_1  D_1  S_1  
     e(  8 -  8) =      2.76515  eV     1   --> B_2  D_4  S_4  
     e(  9 -  9) =      4.13740  eV     1   --> A_1  D_1  S_1  
     e( 10 - 10) =      4.83407  eV     1   --> B_1  D_3  S_3  
     e( 11 - 11) =      5.37034  eV     1   --> A_1  D_1  S_1  
     e( 12 - 12) =      6.54213  eV     1   --> B_2  D_4  S_4  
     e( 13 - 13) =      7.04027  eV     1   --> B_2  D_4  S_4  
     e( 14 - 14) =      8.56270  eV     1   --> A_1  D_1  S_1  
     e( 15 - 15) =      9.93329  eV     1   --> A_1  D_1  S_1  
     e( 16 - 16) =     12.59154  eV     1   --> B_2  D_4  S_4  
     e( 17 - 17) =     15.46212  eV     1   --> A_1  D_1  S_1  
     e( 18 - 18) =     18.78557  eV     1   --> A_1  D_1  S_1  
     e( 19 - 19) =     19.13146  eV     1   --> B_2  D_4  S_4  
     e( 20 - 20) =     22.22096  eV     1   --> A_1  D_1  S_1  
     e( 21 - 21) =     22.22441  eV     1   --> B_2  D_4  S_4  
     e( 22 - 22) =     22.58050  eV     1   --> A_2  D_2  S_2  
     e( 23 - 23) =     25.44216  eV     1   --> B_2  D_4  S_4  
     e( 24 - 24) =     26.31269  eV     1   --> A_1  D_1  S_1  
     e( 25 - 25) =     27.63151  eV     1   --> B_2  D_4  S_4  
     e( 26 - 26) =     28.34102  eV     1   --> B_2  D_4  S_4  
     e( 27 - 27) =     28.61160  eV     1   --> B_1  D_3  S_3  
     e( 28 - 28) =     28.86198  eV     1   --> A_1  D_1  S_1  

 **************************************************************************

 **************************************************************************

                    xk=(   0.10000,   0.05774,   0.00000  )

     Band symmetry, C_2v (mm2)  point group:

     e(  1 -  1) =    -23.52682  eV     1   --> A_1  D_1  S_1  
     e(  2 -  2) =    -11.57712  eV     1   --> B_2  D_4  S_4  
     e(  3 -  3) =     -8.21779  eV     1   --> A_1  D_1  S_1  
     e(  4 -  4) =     -7.77333  eV     1   --> B_1  D_3  S_3  
     e(  5 -  5) =     -0.65005  eV     1   --> A_1  D_1  S_1  
     e(  6 -  6) =      0.23257  eV     1   --> B_2  D_4  S_4  
     e(  7 -  7) =      1.92254  eV     1   --> A_1  D_1  S_1  
     e(  8 -  8) =      2.84003  eV     1   --> B_2  D_4  S_4  
     e(  9 -  9) =      4.14346  eV     1   --> A_1  D_1  S_1  
     e( 10 - 10) =      5.05589  eV     1   --> B_1  D_3  S_3  
     e( 11 - 11) =      5.44679  eV     1   --> A_1  D_1  S_1  
     e( 12 - 12) =      6.36173  eV     1   --> B_2  D_4  S_4  
     e( 13 - 13) =      7.11255  eV     1   --> B_2  D_4  S_4  
     e( 14 - 14) =      8.67100  eV     1   --> A_1  D_1  S_1  
     e( 15 - 15) =     10.00845  eV     1   --> A_1  D_1  S_1  
     e( 16 - 16) =     12.65560  eV     1   --> B_2  D_4  S_4  
     e( 17 - 17) =     15.53570  eV     1   --> A_1  D_1  S_1  
     e( 18 - 18) =     18.93976  eV     1   --> A_1  D_1  S_1  
     e( 19 - 19) =     19.11437  eV     1   --> B_2  D_4  S_4  
     e( 20 - 20) =     21.85266  eV     1   --> B_2  D_4  S_4  
     e( 21 - 21) =     22.29450  eV     1   --> A_1  D_1  S_1  
     e( 22 - 22) =     22.30030  eV     1   --> A_2  D_2  S_2  
     e( 23 - 23) =     25.50007  eV     1   --> B_2  D_4  S_4  
     e( 24 - 24) =     25.61936  eV     1   --> A_1  D_1  S_1  
     e( 25 - 25) =     27.00304  eV     1   --> B_2  D_4  S_4  
     e( 26 - 26) =     28.15859  eV     1   --> A_1  D_1  S_1  
     e( 27 - 27) =     28.28417  eV     1   --> B_1  D_3  S_3  
     e( 28 - 28) =     28.30613  eV     1   --> B_2  D_4  S_4  

 **************************************************************************

 **************************************************************************

                    xk=(   0.11250,   0.06495,   0.00000  )

     Band symmetry, C_2v (mm2)  point group:

     e(  1 -  1) =    -23.46431  eV     1   --> A_1  D_1  S_1  
     e(  2 -  2) =    -11.50262  eV     1   --> B_2  D_4  S_4  
     e(  3 -  3) =     -8.44102  eV     1   --> A_1  D_1  S_1  
     e(  4 -  4) =     -7.88445  eV     1   --> B_1  D_3  S_3  
     e(  5 -  5) =     -0.56502  eV     1   --> A_1  D_1  S_1  
     e(  6 -  6) =      0.31831  eV     1   --> B_2  D_4  S_4  
     e(  7 -  7) =      2.00807  eV     1   --> A_1  D_1  S_1  
     e(  8 -  8) =      2.92481  eV     1   --> B_2  D_4  S_4  
     e(  9 -  9) =      4.14467  eV     1   --> A_1  D_1  S_1  
     e( 10 - 10) =      5.30161  eV     1   --> B_1  D_3  S_3  
     e( 11 - 11) =      5.53303  eV     1   --> A_1  D_1  S_1  
     e( 12 - 12) =      6.16139  eV     1   --> B_2  D_4  S_4  
     e( 13 - 13) =      7.19437  eV     1   --> B_2  D_4  S_4  
     e( 14 - 14) =      8.79521  eV     1   --> A_1  D_1  S_1  
     e( 15 - 15) =     10.09353  eV     1   --> A_1  D_1  S_1  
     e( 16 - 16) =     12.72744  eV     1   --> B_2  D_4  S_4  
     e( 17 - 17) =     15.61880  eV     1   --> A_1  D_1  S_1  
     e( 18 - 18) =     19.07052  eV     1   --> B_2  D_4  S_4  
     e( 19 - 19) =     19.10408  eV     1   --> A_1  D_1  S_1  
     e( 20 - 20) =     21.51214  eV     1   --> B_2  D_4  S_4  
     e( 21 - 21) =     22.02035  eV     1   --> A_2  D_2  S_2  
     e( 22 - 22) =     22.37818  eV     1   --> A_1  D_1  S_1  
     e( 23 - 23) =     24.93878  eV     1   --> A_1  D_1  S_1  
     e( 24 - 24) =     25.53198  eV     1   --> B_2  D_4  S_4  
     e( 25 - 25) =     26.36965  eV     1   --> B_2  D_4  S_4  
     e( 26 - 26) =     27.45662  eV     1   --> A_1  D_1  S_1  
     e( 27 - 27) =     27.96608  eV     1   --> B_1  D_3  S_3  
     e( 28 - 28) =     28.28558  eV     1   --> B_2  D_4  S_4  

 **************************************************************************

 **************************************************************************

                    xk=(   0.12500,   0.07217,   0.00000  )

     Band symmetry, C_2v (mm2)  point group:

     e(  1 -  1) =    -23.39451  eV     1   --> A_1  D_1  S_1  
     e(  2 -  2) =    -11.41949  eV     1   --> B_2  D_4  S_4  
     e(  3 -  3) =     -8.68199  eV     1   --> A_1  D_1  S_1  
     e(  4 -  4) =     -8.00262  eV     1   --> B_1  D_3  S_3  
     e(  5 -  5) =     -0.47000  eV     1   --> A_1  D_1  S_1  
     e(  6 -  6) =      0.41408  eV     1   --> B_2  D_4  S_4  
     e(  7 -  7) =      2.10365  eV     1   --> A_1  D_1  S_1  
     e(  8 -  8) =      3.01946  eV     1   --> B_2  D_4  S_4  
     e(  9 -  9) =      4.14025  eV     1   --> A_1  D_1  S_1  
     e( 10 - 10) =      5.56961  eV     1   --> B_1  D_3  S_3  
     e( 11 - 11) =      5.62900  eV     1   --> A_1  D_1  S_1  
     e( 12 - 12) =      5.94243  eV     1   --> B_2  D_4  S_4  
     e( 13 - 13) =      7.28568  eV     1   --> B_2  D_4  S_4  
     e( 14 - 14) =      8.93491  eV     1   --> A_1  D_1  S_1  
     e( 15 - 15) =     10.18851  eV     1   --> A_1  D_1  S_1  
     e( 16 - 16) =     12.80671  eV     1   --> B_2  D_4  S_4  
     e( 17 - 17) =     15.71134  eV     1   --> A_1  D_1  S_1  
     e( 18 - 18) =     18.98663  eV     1   --> B_2  D_4  S_4  
     e( 19 - 19) =     19.27342  eV     1   --> A_1  D_1  S_1  
     e( 20 - 20) =     21.22081  eV     1   --> B_2  D_4  S_4  
     e( 21 - 21) =     21.74310  eV     1   --> A_2  D_2  S_2  
     e( 22 - 22) =     22.47192  eV     1   --> A_1  D_1  S_1  
     e( 23 - 23) =     24.27399  eV     1   --> A_1  D_1  S_1  
     e( 24 - 24) =     25.36827  eV     1   --> B_2  D_4  S_4  
     e( 25 - 25) =     25.92409  eV     1   --> B_2  D_4  S_4  
     e( 26 - 26) =     26.76246  eV     1   --> A_1  D_1  S_1  
     e( 27 - 27) =     27.65746  eV     1   --> B_1  D_3  S_3  
     e( 28 - 28) =     28.17838  eV     1   --> B_2  D_4  S_4  

 **************************************************************************

 **************************************************************************

                    xk=(   0.13750,   0.07939,   0.00000  )

     Band symmetry, C_2v (mm2)  point group:

     e(  1 -  1) =    -23.31741  eV     1   --> A_1  D_1  S_1  
     e(  2 -  2) =    -11.32781  eV     1   --> B_2  D_4  S_4  
     e(  3 -  3) =     -8.93873  eV     1   --> A_1  D_1  S_1  
     e(  4 -  4) =     -8.12646  eV     1   --> B_1  D_3  S_3  
     e(  5 -  5) =     -0.36498  eV     1   --> A_1  D_1  S_1  
     e(  6 -  6) =      0.51988  eV     1   --> B_2  D_4  S_4  
     e(  7 -  7) =      2.20924  eV     1   --> A_1  D_1  S_1  
     e(  8 -  8) =      3.12392  eV     1   --> B_2  D_4  S_4  
     e(  9 -  9) =      4.12976  eV     1   --> A_1  D_1  S_1  
     e( 10 - 10) =      5.70621  eV     1   --> B_2  D_4  S_4  
     e( 11 - 11) =      5.73466  eV     1   --> A_1  D_1  S_1  
     e( 12 - 12) =      5.85830  eV     1   --> B_1  D_3  S_3  
     e( 13 - 13) =      7.38642  eV     1   --> B_2  D_4  S_4  
     e( 14 - 14) =      9.08931  eV     1   --> A_1  D_1  S_1  
     e( 15 - 15) =     10.29337  eV     1   --> A_1  D_1  S_1  
     e( 16 - 16) =     12.89297  eV     1   --> B_2  D_4  S_4  
     e( 17 - 17) =     15.81324  eV     1   --> A_1  D_1  S_1  
     e( 18 - 18) =     18.85028  eV     1   --> B_2  D_4  S_4  
     e( 19 - 19) =     19.44065  eV     1   --> A_1  D_1  S_1  
     e( 20 - 20) =     20.99327  eV     1   --> B_2  D_4  S_4  
     e( 21 - 21) =     21.47029  eV     1   --> A_2  D_2  S_2  
     e( 22 - 22) =     22.57487  eV     1   --> A_1  D_1  S_1  
     e( 23 - 23) =     23.63016  eV     1   --> A_1  D_1  S_1  
     e( 24 - 24) =     24.83481  eV     1   --> B_2  D_4  S_4  
     e( 25 - 25) =     25.82685  eV     1   --> B_2  D_4  S_4  
     e( 26 - 26) =     26.07895  eV     1   --> A_1  D_1  S_1  
     e( 27 - 27) =     27.35841  eV     1   --> B_1  D_3  S_3  
     e( 28 - 28) =     27.73749  eV     1   --> B_2  D_4  S_4  

 **************************************************************************

 **************************************************************************

                    xk=(   0.15000,   0.08660,   0.00000  )

     Band symmetry, C_2v (mm2)  point group:

     e(  1 -  1) =    -23.23305  eV     1   --> A_1  D_1  S_1  
     e(  2 -  2) =    -11.22764  eV     1   --> B_2  D_4  S_4  
     e(  3 -  3) =     -9.20935  eV     1   --> A_1  D_1  S_1  
     e(  4 -  4) =     -8.25467  eV     1   --> B_1  D_3  S_3  
     e(  5 -  5) =     -0.24998  eV     1   --> A_1  D_1  S_1  
     e(  6 -  6) =      0.63566  eV     1   --> B_2  D_4  S_4  
     e(  7 -  7) =      2.32482  eV     1   --> A_1  D_1  S_1  
     e(  8 -  8) =      3.23807  eV     1   --> B_2  D_4  S_4  
     e(  9 -  9) =      4.11310  eV     1   --> A_1  D_1  S_1  
     e( 10 - 10) =      5.45414  eV     1   --> B_2  D_4  S_4  
     e( 11 - 11) =      5.85001  eV     1   --> A_1  D_1  S_1  
     e( 12 - 12) =      6.16612  eV     1   --> B_1  D_3  S_3  
     e( 13 - 13) =      7.49654  eV     1   --> B_2  D_4  S_4  
     e( 14 - 14) =      9.25729  eV     1   --> A_1  D_1  S_1  
     e( 15 - 15) =     10.40808  eV     1   --> A_1  D_1  S_1  
     e( 16 - 16) =     12.98568  eV     1   --> B_2  D_4  S_4  
     e( 17 - 17) =     15.92441  eV     1   --> A_1  D_1  S_1  
     e( 18 - 18) =     18.65656  eV     1   --> B_2  D_4  S_4  
     e( 19 - 19) =     19.59494  eV     1   --> A_1  D_1  S_1  
     e( 20 - 20) =     20.83448  eV     1   --> B_2  D_4  S_4  
     e( 21 - 21) =     21.20316  eV     1   --> A_2  D_2  S_2  
     e( 22 - 22) =     22.67715  eV     1   --> A_1  D_1  S_1  
     e( 23 - 23) =     23.02433  eV     1   --> A_1  D_1  S_1  
     e( 24 - 24) =     24.20938  eV     1   --> B_2  D_4  S_4  
     e( 25 - 25) =     25.40833  eV     1   --> A_1  D_1  S_1  
     e( 26 - 26) =     25.76419  eV     1   --> B_2  D_4  S_4  
     e( 27 - 27) =     27.06899  eV     1   --> B_1  D_3  S_3  
     e( 28 - 28) =     27.22741  eV     1   --> B_2  D_4  S_4  

 **************************************************************************

 **************************************************************************

                    xk=(   0.16250,   0.09382,   0.00000  )

     Band symmetry, C_2v (mm2)  point group:

     e(  1 -  1) =    -23.14145  eV     1   --> A_1  D_1  S_1  
     e(  2 -  2) =    -11.11905  eV     1   --> B_2  D_4  S_4  
     e(  3 -  3) =     -9.49210  eV     1   --> A_1  D_1  S_1  
     e(  4 -  4) =     -8.38601  eV     1   --> B_1  D_3  S_3  
     e(  5 -  5) =     -0.12500  eV     1   --> A_1  D_1  S_1  
     e(  6 -  6) =      0.76139  eV     1   --> B_2  D_4  S_4  
     e(  7 -  7) =      2.45034  eV     1   --> A_1  D_1  S_1  
     e(  8 -  8) =      3.36172  eV     1   --> B_2  D_4  S_4  
     e(  9 -  9) =      4.09050  eV     1   --> A_1  D_1  S_1  
     e( 10 - 10) =      5.18774  eV     1   --> B_2  D_4  S_4  
     e( 11 - 11) =      5.97506  eV     1   --> A_1  D_1  S_1  
     e( 12 - 12) =      6.49154  eV     1   --> B_1  D_3  S_3  
     e( 13 - 13) =      7.61595  eV     1   --> B_2  D_4  S_4  
     e( 14 - 14) =      9.43738  eV     1   --> A_1  D_1  S_1  
     e( 15 - 15) =     10.53263  eV     1   --> A_1  D_1  S_1  
     e( 16 - 16) =     13.08413  eV     1   --> B_2  D_4  S_4  
     e( 17 - 17) =     16.04474  eV     1   --> A_1  D_1  S_1  
     e( 18 - 18) =     18.41204  eV     1   --> B_2  D_4  S_4  
     e( 19 - 19) =     19.71813  eV     1   --> A_1  D_1  S_1  
     e( 20 - 20) =     20.73542  eV     1   --> B_2  D_4  S_4  
     e( 21 - 21) =     20.94265  eV     1   --> A_2  D_2  S_2  
     e( 22 - 22) =     22.40689  eV     1   --> A_1  D_1  S_1  
     e( 23 - 23) =     22.84137  eV     1   --> A_1  D_1  S_1  
     e( 24 - 24) =     23.58271  eV     1   --> B_2  D_4  S_4  
     e( 25 - 25) =     24.75351  eV     1   --> A_1  D_1  S_1  
     e( 26 - 26) =     25.58225  eV     1   --> B_2  D_4  S_4  
     e( 27 - 27) =     26.78923  eV     1   --> B_1  D_3  S_3  
     e( 28 - 28) =     26.82440  eV     1   --> B_2  D_4  S_4  

 **************************************************************************

 **************************************************************************

                    xk=(   0.17500,   0.10104,   0.00000  )

     Band symmetry, C_2v (mm2)  point group:

     e(  1 -  1) =    -23.04263  eV     1   --> A_1  D_1  S_1  
     e(  2 -  2) =    -11.00212  eV     1   --> B_2  D_4  S_4  
     e(  3 -  3) =     -9.78529  eV     1   --> A_1  D_1  S_1  
     e(  4 -  4) =     -8.51936  eV     1   --> B_1  D_3  S_3  
     e(  5 -  5) =      0.00995  eV     1   --> A_1  D_1  S_1  
     e(  6 -  6) =      0.89701  eV     1   --> B_2  D_4  S_4  
     e(  7 -  7) =      2.58573  eV     1   --> A_1  D_1  S_1  
     e(  8 -  8) =      3.49442  eV     1   --> B_2  D_4  S_4  
     e(  9 -  9) =      4.06240  eV     1   --> A_1  D_1  S_1  
     e( 10 - 10) =      4.90879  eV     1   --> B_2  D_4  S_4  
     e( 11 - 11) =      6.10984  eV     1   --> A_1  D_1  S_1  
     e( 12 - 12) =      6.83310  eV     1   --> B_1  D_3  S_3  
     e( 13 - 13) =      7.74458  eV     1   --> B_2  D_4  S_4  
     e( 14 - 14) =      9.62787  eV     1   --> A_1  D_1  S_1  
     e( 15 - 15) =     10.66699  eV     1   --> A_1  D_1  S_1  
     e( 16 - 16) =     13.18739  eV     1   --> B_2  D_4  S_4  
     e( 17 - 17) =     16.17411  eV     1   --> A_1  D_1  S_1  
     e( 18 - 18) =     18.13100  eV     1   --> B_2  D_4  S_4  
     e( 19 - 19) =     19.77741  eV     1   --> A_1  D_1  S_1  
     e( 20 - 20) =     20.67518  eV     1   --> B_2  D_4  S_4  
     e( 21 - 21) =     20.68943  eV     1   --> A_2  D_2  S_2  
     e( 22 - 22) =     21.90175  eV     1   --> A_1  D_1  S_1  
     e( 23 - 23) =     22.96808  eV     1   --> A_1  D_1  S_1  
     e( 24 - 24) =     22.97542  eV     1   --> B_2  D_4  S_4  
     e( 25 - 25) =     24.12010  eV     1   --> A_1  D_1  S_1  
     e( 26 - 26) =     25.22684  eV     1   --> B_2  D_4  S_4  
     e( 27 - 27) =     26.51918  eV     1   --> B_1  D_3  S_3  
     e( 28 - 28) =     26.57148  eV     1   --> B_2  D_4  S_4  

 **************************************************************************

 **************************************************************************

                    xk=(   0.18750,   0.10825,   0.00000  )

     Band symmetry, C_2v (mm2)  point group:

     e(  1 -  1) =    -22.93662  eV     1   --> A_1  D_1  S_1  
     e(  2 -  2) =    -10.87695  eV     1   --> B_2  D_4  S_4  
     e(  3 -  3) =    -10.08742  eV     1   --> A_1  D_1  S_1  
     e(  4 -  4) =     -8.65367  eV     1   --> B_1  D_3  S_3  
     e(  5 -  5) =      0.15484  eV     1   --> A_1  D_1  S_1  
     e(  6 -  6) =      1.04245  eV     1   --> B_2  D_4  S_4  
     e(  7 -  7) =      2.73084  eV     1   --> A_1  D_1  S_1  
     e(  8 -  8) =      3.63495  eV     1   --> B_2  D_4  S_4  
     e(  9 -  9) =      4.02951  eV     1   --> A_1  D_1  S_1  
     e( 10 - 10) =      4.61985  eV     1   --> B_2  D_4  S_4  
     e( 11 - 11) =      6.25437  eV     1   --> A_1  D_1  S_1  
     e( 12 - 12) =      7.18938  eV     1   --> B_1  D_3  S_3  
     e( 13 - 13) =      7.88232  eV     1   --> B_2  D_4  S_4  
     e( 14 - 14) =      9.82679  eV     1   --> A_1  D_1  S_1  
     e( 15 - 15) =     10.81114  eV     1   --> A_1  D_1  S_1  
     e( 16 - 16) =     13.29419  eV     1   --> B_2  D_4  S_4  
     e( 17 - 17) =     16.31237  eV     1   --> A_1  D_1  S_1  
     e( 18 - 18) =     17.82860  eV     1   --> B_2  D_4  S_4  
     e( 19 - 19) =     19.71807  eV     1   --> A_1  D_1  S_1  
     e( 20 - 20) =     20.44404  eV     1   --> A_2  D_2  S_2  
     e( 21 - 21) =     20.62334  eV     1   --> B_2  D_4  S_4  
     e( 22 - 22) =     21.49860  eV     1   --> A_1  D_1  S_1  
     e( 23 - 23) =     22.40539  eV     1   --> B_2  D_4  S_4  
     e( 24 - 24) =     23.09781  eV     1   --> A_1  D_1  S_1  
     e( 25 - 25) =     23.52924  eV     1   --> A_1  D_1  S_1  
     e( 26 - 26) =     24.75422  eV     1   --> B_2  D_4  S_4  
     e( 27 - 27) =     26.25884  eV     1   --> B_1  D_3  S_3  
     e( 28 - 28) =     26.40533  eV     1   --> B_2  D_4  S_4  

 **************************************************************************

 **************************************************************************

                    xk=(   0.20000,   0.11547,   0.00000  )

     Band symmetry, C_2v (mm2)  point group:

     e(  1 -  1) =    -22.82345  eV     1   --> A_1  D_1  S_1  
     e(  2 -  2) =    -10.74365  eV     1   --> B_2  D_4  S_4  
     e(  3 -  3) =    -10.39705  eV     1   --> A_1  D_1  S_1  
     e(  4 -  4) =     -8.78799  eV     1   --> B_1  D_3  S_3  
     e(  5 -  5) =      0.30968  eV     1   --> A_1  D_1  S_1  
     e(  6 -  6) =      1.19756  eV     1   --> B_2  D_4  S_4  
     e(  7 -  7) =      2.88546  eV     1   --> A_1  D_1  S_1  
     e(  8 -  8) =      3.77795  eV     1   --> B_2  D_4  S_4  
     e(  9 -  9) =      3.99272  eV     1   --> A_1  D_1  S_1  
     e( 10 - 10) =      4.32765  eV     1   --> B_2  D_4  S_4  
     e( 11 - 11) =      6.40868  eV     1   --> A_1  D_1  S_1  
     e( 12 - 12) =      7.55899  eV     1   --> B_1  D_3  S_3  
     e( 13 - 13) =      8.02905  eV     1   --> B_2  D_4  S_4  
     e( 14 - 14) =     10.03194  eV     1   --> A_1  D_1  S_1  
     e( 15 - 15) =     10.96501  eV     1   --> A_1  D_1  S_1  
     e( 16 - 16) =     13.40284  eV     1   --> B_2  D_4  S_4  
     e( 17 - 17) =     16.45930  eV     1   --> A_1  D_1  S_1  
     e( 18 - 18) =     17.51708  eV     1   --> B_2  D_4  S_4  
     e( 19 - 19) =     19.48878  eV     1   --> A_1  D_1  S_1  
     e( 20 - 20) =     20.20690  eV     1   --> A_2  D_2  S_2  
     e( 21 - 21) =     20.53289  eV     1   --> B_2  D_4  S_4  
     e( 22 - 22) =     21.23543  eV     1   --> A_1  D_1  S_1  
     e( 23 - 23) =     21.90563  eV     1   --> B_2  D_4  S_4  
     e( 24 - 24) =     22.89508  eV     1   --> A_1  D_1  S_1  
     e( 25 - 25) =     23.32559  eV     1   --> A_1  D_1  S_1  
     e( 26 - 26) =     24.24044  eV     1   --> B_2  D_4  S_4  
     e( 27 - 27) =     26.00821  eV     1   --> B_1  D_3  S_3  
     e( 28 - 28) =     26.20970  eV     1   --> A_1  D_1  S_1  

 **************************************************************************

 **************************************************************************

                    xk=(   0.21250,   0.12269,   0.00000  )

     Band symmetry, C_2v (mm2)  point group:

     e(  1 -  1) =    -22.70315  eV     1   --> A_1  D_1  S_1  
     e(  2 -  2) =    -10.71289  eV     1   --> A_1  D_1  S_1  
     e(  3 -  3) =    -10.60235  eV     1   --> B_2  D_4  S_4  
     e(  4 -  4) =     -8.92146  eV     1   --> B_1  D_3  S_3  
     e(  5 -  5) =      0.47442  eV     1   --> A_1  D_1  S_1  
     e(  6 -  6) =      1.36212  eV     1   --> B_2  D_4  S_4  
     e(  7 -  7) =      3.04913  eV     1   --> A_1  D_1  S_1  
     e(  8 -  8) =      3.86304  eV     1   --> B_2  D_4  S_4  
     e(  9 -  9) =      3.95322  eV     1   --> A_1  D_1  S_1  
     e( 10 - 10) =      4.09400  eV     1   --> B_2  D_4  S_4  
     e( 11 - 11) =      6.57276  eV     1   --> A_1  D_1  S_1  
     e( 12 - 12) =      7.94059  eV     1   --> B_1  D_3  S_3  
     e( 13 - 13) =      8.18461  eV     1   --> B_2  D_4  S_4  
     e( 14 - 14) =     10.24088  eV     1   --> A_1  D_1  S_1  
     e( 15 - 15) =     11.12856  eV     1   --> A_1  D_1  S_1  
     e( 16 - 16) =     13.51096  eV     1   --> B_2  D_4  S_4  
     e( 17 - 17) =     16.61459  eV     1   --> A_1  D_1  S_1  
     e( 18 - 18) =     17.20543  eV     1   --> B_2  D_4  S_4  
     e( 19 - 19) =     19.10680  eV     1   --> A_1  D_1  S_1  
     e( 20 - 20) =     19.97831  eV     1   --> A_2  D_2  S_2  
     e( 21 - 21) =     20.33192  eV     1   --> B_2  D_4  S_4  
     e( 22 - 22) =     21.05481  eV     1   --> A_1  D_1  S_1  
     e( 23 - 23) =     21.53288  eV     1   --> B_2  D_4  S_4  
     e( 24 - 24) =     22.42469  eV     1   --> A_1  D_1  S_1  
     e( 25 - 25) =     23.47903  eV     1   --> A_1  D_1  S_1  
     e( 26 - 26) =     23.72997  eV     1   --> B_2  D_4  S_4  
     e( 27 - 27) =     25.63276  eV     1   --> A_1  D_1  S_1  
     e( 28 - 28) =     25.76731  eV     1   --> B_1  D_3  S_3  

 **************************************************************************

 **************************************************************************

                    xk=(   0.22500,   0.12990,   0.00000  )

     Band symmetry, C_2v (mm2)  point group:

     e(  1 -  1) =    -22.57576  eV     1   --> A_1  D_1  S_1  
     e(  2 -  2) =    -11.03377  eV     1   --> A_1  D_1  S_1  
     e(  3 -  3) =    -10.45318  eV     1   --> B_2  D_4  S_4  
     e(  4 -  4) =     -9.05330  eV     1   --> B_1  D_3  S_3  
     e(  5 -  5) =      0.64906  eV     1   --> A_1  D_1  S_1  
     e(  6 -  6) =      1.53568  eV     1   --> B_2  D_4  S_4  
     e(  7 -  7) =      3.22074  eV     1   --> A_1  D_1  S_1  
     e(  8 -  8) =      3.64251  eV     1   --> B_2  D_4  S_4  
     e(  9 -  9) =      3.91285  eV     1   --> A_1  D_1  S_1  
     e( 10 - 10) =      4.16826  eV     1   --> B_2  D_4  S_4  
     e( 11 - 11) =      6.74664  eV     1   --> A_1  D_1  S_1  
     e( 12 - 12) =      8.33284  eV     1   --> B_1  D_3  S_3  
     e( 13 - 13) =      8.34884  eV     1   --> B_2  D_4  S_4  
     e( 14 - 14) =     10.45086  eV     1   --> A_1  D_1  S_1  
     e( 15 - 15) =     11.30168  eV     1   --> A_1  D_1  S_1  
     e( 16 - 16) =     13.61517  eV     1   --> B_2  D_4  S_4  
     e( 17 - 17) =     16.77764  eV     1   --> A_1  D_1  S_1  
     e( 18 - 18) =     16.90035  eV     1   --> B_2  D_4  S_4  
     e( 19 - 19) =     18.63848  eV     1   --> A_1  D_1  S_1  
     e( 20 - 20) =     19.75855  eV     1   --> A_2  D_2  S_2  
     e( 21 - 21) =     19.97850  eV     1   --> B_2  D_4  S_4  
     e( 22 - 22) =     20.81913  eV     1   --> A_1  D_1  S_1  
     e( 23 - 23) =     21.30869  eV     1   --> B_2  D_4  S_4  
     e( 24 - 24) =     22.08464  eV     1   --> A_1  D_1  S_1  
     e( 25 - 25) =     23.25421  eV     1   --> B_2  D_4  S_4  
     e( 26 - 26) =     23.65370  eV     1   --> A_1  D_1  S_1  
     e( 27 - 27) =     25.07343  eV     1   --> A_1  D_1  S_1  
     e( 28 - 28) =     25.53612  eV     1   --> B_1  D_3  S_3  

 **************************************************************************

 **************************************************************************

                    xk=(   0.23750,   0.13712,   0.00000  )

     Band symmetry, C_2v (mm2)  point group:

     e(  1 -  1) =    -22.44133  eV     1   --> A_1  D_1  S_1  
     e(  2 -  2) =    -11.35860  eV     1   --> A_1  D_1  S_1  
     e(  3 -  3) =    -10.29632  eV     1   --> B_2  D_4  S_4  
     e(  4 -  4) =     -9.18283  eV     1   --> B_1  D_3  S_3  
     e(  5 -  5) =      0.83357  eV     1   --> A_1  D_1  S_1  
     e(  6 -  6) =      1.71723  eV     1   --> B_2  D_4  S_4  
     e(  7 -  7) =      3.32992  eV     1   --> B_2  D_4  S_4  
     e(  8 -  8) =      3.39707  eV     1   --> A_1  D_1  S_1  
     e(  9 -  9) =      3.87556  eV     1   --> A_1  D_1  S_1  
     e( 10 - 10) =      4.33903  eV     1   --> B_2  D_4  S_4  
     e( 11 - 11) =      6.93031  eV     1   --> A_1  D_1  S_1  
     e( 12 - 12) =      8.52152  eV     1   --> B_2  D_4  S_4  
     e( 13 - 13) =      8.73439  eV     1   --> B_1  D_3  S_3  
     e( 14 - 14) =     10.65870  eV     1   --> A_1  D_1  S_1  
     e( 15 - 15) =     11.48422  eV     1   --> A_1  D_1  S_1  
     e( 16 - 16) =     13.71061  eV     1   --> B_2  D_4  S_4  
     e( 17 - 17) =     16.60747  eV     1   --> B_2  D_4  S_4  
     e( 18 - 18) =     16.94688  eV     1   --> A_1  D_1  S_1  
     e( 19 - 19) =     18.13545  eV     1   --> A_1  D_1  S_1  
     e( 20 - 20) =     19.52397  eV     1   --> B_2  D_4  S_4  
     e( 21 - 21) =     19.54780  eV     1   --> A_2  D_2  S_2  
     e( 22 - 22) =     20.44335  eV     1   --> A_1  D_1  S_1  
     e( 23 - 23) =     21.15006  eV     1   --> B_2  D_4  S_4  
     e( 24 - 24) =     21.91595  eV     1   --> A_1  D_1  S_1  
     e( 25 - 25) =     22.84925  eV     1   --> B_2  D_4  S_4  
     e( 26 - 26) =     23.81804  eV     1   --> A_1  D_1  S_1  
     e( 27 - 27) =     24.55947  eV     1   --> A_1  D_1  S_1  
     e( 28 - 28) =     25.31462  eV     1   --> B_1  D_3  S_3  

 **************************************************************************

 **************************************************************************

                    xk=(   0.25000,   0.14434,   0.00000  )

     Band symmetry, C_2v (mm2)  point group:

     e(  1 -  1) =    -22.29990  eV     1   --> A_1  D_1  S_1  
     e(  2 -  2) =    -11.68639  eV     1   --> A_1  D_1  S_1  
     e(  3 -  3) =    -10.13196  eV     1   --> B_2  D_4  S_4  
     e(  4 -  4) =     -9.30941  eV     1   --> B_1  D_3  S_3  
     e(  5 -  5) =      1.02790  eV     1   --> A_1  D_1  S_1  
     e(  6 -  6) =      1.90380  eV     1   --> B_2  D_4  S_4  
     e(  7 -  7) =      3.00752  eV     1   --> B_2  D_4  S_4  
     e(  8 -  8) =      3.56449  eV     1   --> A_1  D_1  S_1  
     e(  9 -  9) =      3.85571  eV     1   --> A_1  D_1  S_1  
     e( 10 - 10) =      4.52817  eV     1   --> B_2  D_4  S_4  
     e( 11 - 11) =      7.12375  eV     1   --> A_1  D_1  S_1  
     e( 12 - 12) =      8.70238  eV     1   --> B_2  D_4  S_4  
     e( 13 - 13) =      9.14390  eV     1   --> B_1  D_3  S_3  
     e( 14 - 14) =     10.86060  eV     1   --> A_1  D_1  S_1  
     e( 15 - 15) =     11.67598  eV     1   --> A_1  D_1  S_1  
     e( 16 - 16) =     13.79021  eV     1   --> B_2  D_4  S_4  
     e( 17 - 17) =     16.33237  eV     1   --> B_2  D_4  S_4  
     e( 18 - 18) =     17.11386  eV     1   --> A_1  D_1  S_1  
     e( 19 - 19) =     17.63238  eV     1   --> A_1  D_1  S_1  
     e( 20 - 20) =     19.03255  eV     1   --> B_2  D_4  S_4  
     e( 21 - 21) =     19.34625  eV     1   --> A_2  D_2  S_2  
     e( 22 - 22) =     19.96753  eV     1   --> A_1  D_1  S_1  
     e( 23 - 23) =     20.95188  eV     1   --> B_2  D_4  S_4  
     e( 24 - 24) =     21.84218  eV     1   --> A_1  D_1  S_1  
     e( 25 - 25) =     22.55785  eV     1   --> B_2  D_4  S_4  
     e( 26 - 26) =     23.82035  eV     1   --> A_1  D_1  S_1  
     e( 27 - 27) =     24.25235  eV     1   --> A_1  D_1  S_1  
     e( 28 - 28) =     25.10278  eV     1   --> B_1  D_3  S_3  

 **************************************************************************

 **************************************************************************

                    xk=(   0.26250,   0.15155,   0.00000  )

     Band symmetry, C_2v (mm2)  point group:

     e(  1 -  1) =    -22.15151  eV     1   --> A_1  D_1  S_1  
     e(  2 -  2) =    -12.01625  eV     1   --> A_1  D_1  S_1  
     e(  3 -  3) =     -9.96033  eV     1   --> B_2  D_4  S_4  
     e(  4 -  4) =     -9.43248  eV     1   --> B_1  D_3  S_3  
     e(  5 -  5) =      1.23200  eV     1   --> A_1  D_1  S_1  
     e(  6 -  6) =      2.08204  eV     1   --> B_2  D_4  S_4  
     e(  7 -  7) =      2.69619  eV     1   --> B_2  D_4  S_4  
     e(  8 -  8) =      3.66242  eV     1   --> A_1  D_1  S_1  
     e(  9 -  9) =      3.91454  eV     1   --> A_1  D_1  S_1  
     e( 10 - 10) =      4.72926  eV     1   --> B_2  D_4  S_4  
     e( 11 - 11) =      7.32695  eV     1   --> A_1  D_1  S_1  
     e( 12 - 12) =      8.89110  eV     1   --> B_2  D_4  S_4  
     e( 13 - 13) =      9.55997  eV     1   --> B_1  D_3  S_3  
     e( 14 - 14) =     11.05186  eV     1   --> A_1  D_1  S_1  
     e( 15 - 15) =     11.87670  eV     1   --> A_1  D_1  S_1  
     e( 16 - 16) =     13.84398  eV     1   --> B_2  D_4  S_4  
     e( 17 - 17) =     16.08128  eV     1   --> B_2  D_4  S_4  
     e( 18 - 18) =     17.05375  eV     1   --> A_1  D_1  S_1  
     e( 19 - 19) =     17.36769  eV     1   --> A_1  D_1  S_1  
     e( 20 - 20) =     18.53846  eV     1   --> B_2  D_4  S_4  
     e( 21 - 21) =     19.15403  eV     1   --> A_2  D_2  S_2  
     e( 22 - 22) =     19.45145  eV     1   --> A_1  D_1  S_1  
     e( 23 - 23) =     20.66183  eV     1   --> B_2  D_4  S_4  
     e( 24 - 24) =     21.76907  eV     1   --> A_1  D_1  S_1  
     e( 25 - 25) =     22.39847  eV     1   --> B_2  D_4  S_4  
     e( 26 - 26) =     23.48205  eV     1   --> A_1  D_1  S_1  
     e( 27 - 27) =     24.34992  eV     1   --> A_1  D_1  S_1  
     e( 28 - 28) =     24.90059  eV     1   --> B_1  D_3  S_3  

 **************************************************************************

 **************************************************************************

                    xk=(   0.27500,   0.15877,   0.00000  )

     Band symmetry, C_2v (mm2)  point group:

     e(  1 -  1) =    -21.99623  eV     1   --> A_1  D_1  S_1  
     e(  2 -  2) =    -12.34735  eV     1   --> A_1  D_1  S_1  
     e(  3 -  3) =     -9.78168  eV     1   --> B_2  D_4  S_4  
     e(  4 -  4) =     -9.55154  eV     1   --> B_1  D_3  S_3  
     e(  5 -  5) =      1.44582  eV     1   --> A_1  D_1  S_1  
     e(  6 -  6) =      2.14253  eV     1   --> B_2  D_4  S_4  
     e(  7 -  7) =      2.50788  eV     1   --> B_2  D_4  S_4  
     e(  8 -  8) =      3.65875  eV     1   --> A_1  D_1  S_1  
     e(  9 -  9) =      4.08481  eV     1   --> A_1  D_1  S_1  
     e( 10 - 10) =      4.94086  eV     1   --> B_2  D_4  S_4  
     e( 11 - 11) =      7.53987  eV     1   --> A_1  D_1  S_1  
     e( 12 - 12) =      9.08724  eV     1   --> B_2  D_4  S_4  
     e( 13 - 13) =      9.98114  eV     1   --> B_1  D_3  S_3  
     e( 14 - 14) =     11.22642  eV     1   --> A_1  D_1  S_1  
     e( 15 - 15) =     12.08608  eV     1   --> A_1  D_1  S_1  
     e( 16 - 16) =     13.85873  eV     1   --> B_2  D_4  S_4  
     e( 17 - 17) =     15.86076  eV     1   --> B_2  D_4  S_4  
     e( 18 - 18) =     16.58538  eV     1   --> A_1  D_1  S_1  
     e( 19 - 19) =     17.53019  eV     1   --> A_1  D_1  S_1  
     e( 20 - 20) =     18.05979  eV     1   --> B_2  D_4  S_4  
     e( 21 - 21) =     18.92693  eV     1   --> A_1  D_1  S_1  
     e( 22 - 22) =     18.97124  eV     1   --> A_2  D_2  S_2  
     e( 23 - 23) =     20.29441  eV     1   --> B_2  D_4  S_4  
     e( 24 - 24) =     21.62502  eV     1   --> A_1  D_1  S_1  
     e( 25 - 25) =     22.33671  eV     1   --> B_2  D_4  S_4  
     e( 26 - 26) =     23.15252  eV     1   --> A_1  D_1  S_1  
     e( 27 - 27) =     24.53222  eV     1   --> A_1  D_1  S_1  
     e( 28 - 28) =     24.61863  eV     1   --> B_2  D_4  S_4  

 **************************************************************************

 **************************************************************************

                    xk=(   0.28750,   0.16599,   0.00000  )

     Band symmetry, C_2v (mm2)  point group:

     e(  1 -  1) =    -21.83413  eV     1   --> A_1  D_1  S_1  
     e(  2 -  2) =    -12.67894  eV     1   --> A_1  D_1  S_1  
     e(  3 -  3) =     -9.66615  eV     1   --> B_1  D_3  S_3  
     e(  4 -  4) =     -9.59633  eV     1   --> B_2  D_4  S_4  
     e(  5 -  5) =      1.66926  eV     1   --> A_1  D_1  S_1  
     e(  6 -  6) =      1.89940  eV     1   --> B_2  D_4  S_4  
     e(  7 -  7) =      2.63006  eV     1   --> B_2  D_4  S_4  
     e(  8 -  8) =      3.62330  eV     1   --> A_1  D_1  S_1  
     e(  9 -  9) =      4.29730  eV     1   --> A_1  D_1  S_1  
     e( 10 - 10) =      5.16245  eV     1   --> B_2  D_4  S_4  
     e( 11 - 11) =      7.76248  eV     1   --> A_1  D_1  S_1  
     e( 12 - 12) =      9.29027  eV     1   --> B_2  D_4  S_4  
     e( 13 - 13) =     10.40587  eV     1   --> B_1  D_3  S_3  
     e( 14 - 14) =     11.37628  eV     1   --> A_1  D_1  S_1  
     e( 15 - 15) =     12.30386  eV     1   --> A_1  D_1  S_1  
     e( 16 - 16) =     13.82005  eV     1   --> B_2  D_4  S_4  
     e( 17 - 17) =     15.67476  eV     1   --> B_2  D_4  S_4  
     e( 18 - 18) =     16.11307  eV     1   --> A_1  D_1  S_1  
     e( 19 - 19) =     17.60997  eV     1   --> B_2  D_4  S_4  
     e( 20 - 20) =     17.71647  eV     1   --> A_1  D_1  S_1  
     e( 21 - 21) =     18.41455  eV     1   --> A_1  D_1  S_1  
     e( 22 - 22) =     18.79800  eV     1   --> A_2  D_2  S_2  
     e( 23 - 23) =     19.88954  eV     1   --> B_2  D_4  S_4  
     e( 24 - 24) =     21.36800  eV     1   --> A_1  D_1  S_1  
     e( 25 - 25) =     22.31301  eV     1   --> B_2  D_4  S_4  
     e( 26 - 26) =     22.93258  eV     1   --> A_1  D_1  S_1  
     e( 27 - 27) =     24.28469  eV     1   --> B_2  D_4  S_4  
     e( 28 - 28) =     24.52494  eV     1   --> B_1  D_3  S_3  

 **************************************************************************

 **************************************************************************

                    xk=(   0.30000,   0.17321,   0.00000  )

     Band symmetry, C_2v (mm2)  point group:

     e(  1 -  1) =    -21.66527  eV     1   --> A_1  D_1  S_1  
     e(  2 -  2) =    -13.01034  eV     1   --> A_1  D_1  S_1  
     e(  3 -  3) =     -9.77592  eV     1   --> B_1  D_3  S_3  
     e(  4 -  4) =     -9.40464  eV     1   --> B_2  D_4  S_4  
     e(  5 -  5) =      1.57216  eV     1   --> B_2  D_4  S_4  
     e(  6 -  6) =      1.90216  eV     1   --> A_1  D_1  S_1  
     e(  7 -  7) =      2.84457  eV     1   --> B_2  D_4  S_4  
     e(  8 -  8) =      3.58091  eV     1   --> A_1  D_1  S_1  
     e(  9 -  9) =      4.52777  eV     1   --> A_1  D_1  S_1  
     e( 10 - 10) =      5.39376  eV     1   --> B_2  D_4  S_4  
     e( 11 - 11) =      7.99472  eV     1   --> A_1  D_1  S_1  
     e( 12 - 12) =      9.49946  eV     1   --> B_2  D_4  S_4  
     e( 13 - 13) =     10.83248  eV     1   --> B_1  D_3  S_3  
     e( 14 - 14) =     11.49091  eV     1   --> A_1  D_1  S_1  
     e( 15 - 15) =     12.52979  eV     1   --> A_1  D_1  S_1  
     e( 16 - 16) =     13.71741  eV     1   --> B_2  D_4  S_4  
     e( 17 - 17) =     15.51774  eV     1   --> B_2  D_4  S_4  
     e( 18 - 18) =     15.66631  eV     1   --> A_1  D_1  S_1  
     e( 19 - 19) =     17.20334  eV     1   --> B_2  D_4  S_4  
     e( 20 - 20) =     17.78443  eV     1   --> A_1  D_1  S_1  
     e( 21 - 21) =     18.04214  eV     1   --> A_1  D_1  S_1  
     e( 22 - 22) =     18.63437  eV     1   --> A_2  D_2  S_2  
     e( 23 - 23) =     19.47910  eV     1   --> B_2  D_4  S_4  
     e( 24 - 24) =     21.01073  eV     1   --> A_1  D_1  S_1  
     e( 25 - 25) =     22.26805  eV     1   --> B_2  D_4  S_4  
     e( 26 - 26) =     22.81091  eV     1   --> A_1  D_1  S_1  
     e( 27 - 27) =     24.00437  eV     1   --> B_2  D_4  S_4  
     e( 28 - 28) =     24.35138  eV     1   --> B_1  D_3  S_3  

 **************************************************************************

 **************************************************************************

                    xk=(   0.31250,   0.18042,   0.00000  )

     Band symmetry, C_2v (mm2)  point group:

     e(  1 -  1) =    -21.48975  eV     1   --> A_1  D_1  S_1  
     e(  2 -  2) =    -13.34090  eV     1   --> A_1  D_1  S_1  
     e(  3 -  3) =     -9.88048  eV     1   --> B_1  D_3  S_3  
     e(  4 -  4) =     -9.20707  eV     1   --> B_2  D_4  S_4  
     e(  5 -  5) =      1.23152  eV     1   --> B_2  D_4  S_4  
     e(  6 -  6) =      2.14426  eV     1   --> A_1  D_1  S_1  
     e(  7 -  7) =      3.08197  eV     1   --> B_2  D_4  S_4  
     e(  8 -  8) =      3.53740  eV     1   --> A_1  D_1  S_1  
     e(  9 -  9) =      4.77108  eV     1   --> A_1  D_1  S_1  
     e( 10 - 10) =      5.63458  eV     1   --> B_2  D_4  S_4  
     e( 11 - 11) =      8.23655  eV     1   --> A_1  D_1  S_1  
     e( 12 - 12) =      9.71378  eV     1   --> B_2  D_4  S_4  
     e( 13 - 13) =     11.25918  eV     1   --> B_1  D_3  S_3  
     e( 14 - 14) =     11.55708  eV     1   --> A_1  D_1  S_1  
     e( 15 - 15) =     12.76367  eV     1   --> A_1  D_1  S_1  
     e( 16 - 16) =     13.54965  eV     1   --> B_2  D_4  S_4  
     e( 17 - 17) =     15.25458  eV     1   --> A_1  D_1  S_1  
     e( 18 - 18) =     15.36822  eV     1   --> B_2  D_4  S_4  
     e( 19 - 19) =     16.85709  eV     1   --> B_2  D_4  S_4  
     e( 20 - 20) =     17.36994  eV     1   --> A_1  D_1  S_1  
     e( 21 - 21) =     18.17756  eV     1   --> A_1  D_1  S_1  
     e( 22 - 22) =     18.48042  eV     1   --> A_2  D_2  S_2  
     e( 23 - 23) =     19.08502  eV     1   --> B_2  D_4  S_4  
     e( 24 - 24) =     20.59737  eV     1   --> A_1  D_1  S_1  
     e( 25 - 25) =     22.14839  eV     1   --> B_2  D_4  S_4  
     e( 26 - 26) =     22.74123  eV     1   --> A_1  D_1  S_1  
     e( 27 - 27) =     23.82299  eV     1   --> B_2  D_4  S_4  
     e( 28 - 28) =     24.18727  eV     1   --> B_1  D_3  S_3  

 **************************************************************************

 **************************************************************************

                    xk=(   0.32500,   0.18764,   0.00000  )

     Band symmetry, C_2v (mm2)  point group:

     e(  1 -  1) =    -21.30766  eV     1   --> A_1  D_1  S_1  
     e(  2 -  2) =    -13.67002  eV     1   --> A_1  D_1  S_1  
     e(  3 -  3) =     -9.97952  eV     1   --> B_1  D_3  S_3  
     e(  4 -  4) =     -9.00412  eV     1   --> B_2  D_4  S_4  
     e(  5 -  5) =      0.88794  eV     1   --> B_2  D_4  S_4  
     e(  6 -  6) =      2.39505  eV     1   --> A_1  D_1  S_1  
     e(  7 -  7) =      3.33306  eV     1   --> B_2  D_4  S_4  
     e(  8 -  8) =      3.49520  eV     1   --> A_1  D_1  S_1  
     e(  9 -  9) =      5.02564  eV     1   --> A_1  D_1  S_1  
     e( 10 - 10) =      5.88475  eV     1   --> B_2  D_4  S_4  
     e( 11 - 11) =      8.48787  eV     1   --> A_1  D_1  S_1  
     e( 12 - 12) =      9.93177  eV     1   --> B_2  D_4  S_4  
     e( 13 - 13) =     11.55999  eV     1   --> A_1  D_1  S_1  
     e( 14 - 14) =     11.68396  eV     1   --> B_1  D_3  S_3  
     e( 15 - 15) =     13.00526  eV     1   --> A_1  D_1  S_1  
     e( 16 - 16) =     13.32478  eV     1   --> B_2  D_4  S_4  
     e( 17 - 17) =     14.88394  eV     1   --> A_1  D_1  S_1  
     e( 18 - 18) =     15.19382  eV     1   --> B_2  D_4  S_4  
     e( 19 - 19) =     16.58644  eV     1   --> B_2  D_4  S_4  
     e( 20 - 20) =     16.91739  eV     1   --> A_1  D_1  S_1  
     e( 21 - 21) =     18.33621  eV     1   --> A_2  D_2  S_2  
     e( 22 - 22) =     18.38122  eV     1   --> A_1  D_1  S_1  
     e( 23 - 23) =     18.72519  eV     1   --> B_2  D_4  S_4  
     e( 24 - 24) =     20.16507  eV     1   --> A_1  D_1  S_1  
     e( 25 - 25) =     21.92990  eV     1   --> B_2  D_4  S_4  
     e( 26 - 26) =     22.68460  eV     1   --> A_1  D_1  S_1  
     e( 27 - 27) =     23.76174  eV     1   --> B_2  D_4  S_4  
     e( 28 - 28) =     24.03254  eV     1   --> B_1  D_3  S_3  

 **************************************************************************

 **************************************************************************

                    xk=(   0.33750,   0.19486,   0.00000  )

     Band symmetry, C_2v (mm2)  point group:

     e(  1 -  1) =    -21.11911  eV     1   --> A_1  D_1  S_1  
     e(  2 -  2) =    -13.99713  eV     1   --> A_1  D_1  S_1  
     e(  3 -  3) =    -10.07276  eV     1   --> B_1  D_3  S_3  
     e(  4 -  4) =     -8.79647  eV     1   --> B_2  D_4  S_4  
     e(  5 -  5) =      0.54505  eV     1   --> B_2  D_4  S_4  
     e(  6 -  6) =      2.65323  eV     1   --> A_1  D_1  S_1  
     e(  7 -  7) =      3.45653  eV     1   --> A_1  D_1  S_1  
     e(  8 -  8) =      3.59551  eV     1   --> B_2  D_4  S_4  
     e(  9 -  9) =      5.29082  eV     1   --> A_1  D_1  S_1  
     e( 10 - 10) =      6.14410  eV     1   --> B_2  D_4  S_4  
     e( 11 - 11) =      8.74860  eV     1   --> A_1  D_1  S_1  
     e( 12 - 12) =     10.15112  eV     1   --> B_2  D_4  S_4  
     e( 13 - 13) =     11.48688  eV     1   --> A_1  D_1  S_1  
     e( 14 - 14) =     12.10461  eV     1   --> B_1  D_3  S_3  
     e( 15 - 15) =     13.05508  eV     1   --> B_2  D_4  S_4  
     e( 16 - 16) =     13.25401  eV     1   --> A_1  D_1  S_1  
     e( 17 - 17) =     14.55394  eV     1   --> A_1  D_1  S_1  
     e( 18 - 18) =     14.97208  eV     1   --> B_2  D_4  S_4  
     e( 19 - 19) =     16.38876  eV     1   --> B_2  D_4  S_4  
     e( 20 - 20) =     16.49942  eV     1   --> A_1  D_1  S_1  
     e( 21 - 21) =     18.20178  eV     1   --> A_2  D_2  S_2  
     e( 22 - 22) =     18.41720  eV     1   --> B_2  D_4  S_4  
     e( 23 - 23) =     18.58285  eV     1   --> A_1  D_1  S_1  
     e( 24 - 24) =     19.74186  eV     1   --> A_1  D_1  S_1  
     e( 25 - 25) =     21.63355  eV     1   --> B_2  D_4  S_4  
     e( 26 - 26) =     22.61459  eV     1   --> A_1  D_1  S_1  
     e( 27 - 27) =     23.79869  eV     1   --> B_2  D_4  S_4  
     e( 28 - 28) =     23.88712  eV     1   --> B_1  D_3  S_3  

 **************************************************************************

 **************************************************************************

                    xk=(   0.35000,   0.20207,   0.00000  )

     Band symmetry, C_2v (mm2)  point group:

     e(  1 -  1) =    -20.92426  eV     1   --> A_1  D_1  S_1  
     e(  2 -  2) =    -14.32170  eV     1   --> A_1  D_1  S_1  
     e(  3 -  3) =    -10.15996  eV     1   --> B_1  D_3  S_3  
     e(  4 -  4) =     -8.58491  eV     1   --> B_2  D_4  S_4  
     e(  5 -  5) =      0.20512  eV     1   --> B_2  D_4  S_4  
     e(  6 -  6) =      2.91447  eV     1   --> A_1  D_1  S_1  
     e(  7 -  7) =      3.42626  eV     1   --> A_1  D_1  S_1  
     e(  8 -  8) =      3.86843  eV     1   --> B_2  D_4  S_4  
     e(  9 -  9) =      5.56630  eV     1   --> A_1  D_1  S_1  
     e( 10 - 10) =      6.41244  eV     1   --> B_2  D_4  S_4  
     e( 11 - 11) =      9.01860  eV     1   --> A_1  D_1  S_1  
     e( 12 - 12) =     10.36790  eV     1   --> B_2  D_4  S_4  
     e( 13 - 13) =     11.33250  eV     1   --> A_1  D_1  S_1  
     e( 14 - 14) =     12.51866  eV     1   --> B_1  D_3  S_3  
     e( 15 - 15) =     12.75361  eV     1   --> B_2  D_4  S_4  
     e( 16 - 16) =     13.50802  eV     1   --> A_1  D_1  S_1  
     e( 17 - 17) =     14.25360  eV     1   --> A_1  D_1  S_1  
     e( 18 - 18) =     14.70552  eV     1   --> B_2  D_4  S_4  
     e( 19 - 19) =     16.13393  eV     1   --> A_1  D_1  S_1  
     e( 20 - 20) =     16.23472  eV     1   --> B_2  D_4  S_4  
     e( 21 - 21) =     18.07719  eV     1   --> A_2  D_2  S_2  
     e( 22 - 22) =     18.17804  eV     1   --> B_2  D_4  S_4  
     e( 23 - 23) =     18.74093  eV     1   --> A_1  D_1  S_1  
     e( 24 - 24) =     19.37609  eV     1   --> A_1  D_1  S_1  
     e( 25 - 25) =     21.29725  eV     1   --> B_2  D_4  S_4  
     e( 26 - 26) =     22.51000  eV     1   --> A_1  D_1  S_1  
     e( 27 - 27) =     23.75097  eV     1   --> B_1  D_3  S_3  
     e( 28 - 28) =     23.89540  eV     1   --> B_2  D_4  S_4  

 **************************************************************************

 **************************************************************************

                    xk=(   0.36250,   0.20929,   0.00000  )

     Band symmetry, C_2v (mm2)  point group:

     e(  1 -  1) =    -20.72327  eV     1   --> A_1  D_1  S_1  
     e(  2 -  2) =    -14.64320  eV     1   --> A_1  D_1  S_1  
     e(  3 -  3) =    -10.24089  eV     1   --> B_1  D_3  S_3  
     e(  4 -  4) =     -8.37044  eV     1   --> B_2  D_4  S_4  
     e(  5 -  5) =     -0.12991  eV     1   --> B_2  D_4  S_4  
     e(  6 -  6) =      3.15473  eV     1   --> A_1  D_1  S_1  
     e(  7 -  7) =      3.42882  eV     1   --> A_1  D_1  S_1  
     e(  8 -  8) =      4.15137  eV     1   --> B_2  D_4  S_4  
     e(  9 -  9) =      5.85190  eV     1   --> A_1  D_1  S_1  
     e( 10 - 10) =      6.68953  eV     1   --> B_2  D_4  S_4  
     e( 11 - 11) =      9.29771  eV     1   --> A_1  D_1  S_1  
     e( 12 - 12) =     10.57445  eV     1   --> B_2  D_4  S_4  
     e( 13 - 13) =     11.10248  eV     1   --> A_1  D_1  S_1  
     e( 14 - 14) =     12.43488  eV     1   --> B_2  D_4  S_4  
     e( 15 - 15) =     12.92331  eV     1   --> B_1  D_3  S_3  
     e( 16 - 16) =     13.74792  eV     1   --> A_1  D_1  S_1  
     e( 17 - 17) =     13.97794  eV     1   --> A_1  D_1  S_1  
     e( 18 - 18) =     14.41045  eV     1   --> B_2  D_4  S_4  
     e( 19 - 19) =     15.83388  eV     1   --> A_1  D_1  S_1  
     e( 20 - 20) =     16.08703  eV     1   --> B_2  D_4  S_4  
     e( 21 - 21) =     17.96245  eV     1   --> A_2  D_2  S_2  
     e( 22 - 22) =     18.01815  eV     1   --> B_2  D_4  S_4  
     e( 23 - 23) =     18.67854  eV     1   --> A_1  D_1  S_1  
     e( 24 - 24) =     19.25120  eV     1   --> A_1  D_1  S_1  
     e( 25 - 25) =     20.95178  eV     1   --> B_2  D_4  S_4  
     e( 26 - 26) =     22.35275  eV     1   --> A_1  D_1  S_1  
     e( 27 - 27) =     23.62406  eV     1   --> B_1  D_3  S_3  
     e( 28 - 28) =     23.85636  eV     1   --> A_1  D_1  S_1  

 **************************************************************************

 **************************************************************************

                    xk=(   0.37500,   0.21651,   0.00000  )

     Band symmetry, C_2v (mm2)  point group:

     e(  1 -  1) =    -20.51639  eV     1   --> A_1  D_1  S_1  
     e(  2 -  2) =    -14.96109  eV     1   --> A_1  D_1  S_1  
     e(  3 -  3) =    -10.31537  eV     1   --> B_1  D_3  S_3  
     e(  4 -  4) =     -8.15432  eV     1   --> B_2  D_4  S_4  
     e(  5 -  5) =     -0.45804  eV     1   --> B_2  D_4  S_4  
     e(  6 -  6) =      3.26198  eV     1   --> A_1  D_1  S_1  
     e(  7 -  7) =      3.57650  eV     1   --> A_1  D_1  S_1  
     e(  8 -  8) =      4.44405  eV     1   --> B_2  D_4  S_4  
     e(  9 -  9) =      6.14747  eV     1   --> A_1  D_1  S_1  
     e( 10 - 10) =      6.97508  eV     1   --> B_2  D_4  S_4  
     e( 11 - 11) =      9.58555  eV     1   --> A_1  D_1  S_1  
     e( 12 - 12) =     10.75320  eV     1   --> B_2  D_4  S_4  
     e( 13 - 13) =     10.81116  eV     1   --> A_1  D_1  S_1  
     e( 14 - 14) =     12.12096  eV     1   --> B_2  D_4  S_4  
     e( 15 - 15) =     13.31541  eV     1   --> B_1  D_3  S_3  
     e( 16 - 16) =     13.60803  eV     1   --> A_1  D_1  S_1  
     e( 17 - 17) =     14.06798  eV     1   --> A_1  D_1  S_1  
     e( 18 - 18) =     14.10130  eV     1   --> B_2  D_4  S_4  
     e( 19 - 19) =     15.60071  eV     1   --> A_1  D_1  S_1  
     e( 20 - 20) =     15.92476  eV     1   --> B_2  D_4  S_4  
     e( 21 - 21) =     17.85761  eV     1   --> A_2  D_2  S_2  
     e( 22 - 22) =     17.93242  eV     1   --> B_2  D_4  S_4  
     e( 23 - 23) =     18.38163  eV     1   --> A_1  D_1  S_1  
     e( 24 - 24) =     19.38680  eV     1   --> A_1  D_1  S_1  
     e( 25 - 25) =     20.61996  eV     1   --> B_2  D_4  S_4  
     e( 26 - 26) =     22.13519  eV     1   --> A_1  D_1  S_1  
     e( 27 - 27) =     23.50636  eV     1   --> B_1  D_3  S_3  
     e( 28 - 28) =     23.63875  eV     1   --> A_1  D_1  S_1  

 **************************************************************************

 **************************************************************************

                    xk=(   0.38750,   0.22372,   0.00000  )

     Band symmetry, C_2v (mm2)  point group:

     e(  1 -  1) =    -20.30389  eV     1   --> A_1  D_1  S_1  
     e(  2 -  2) =    -15.27479  eV     1   --> A_1  D_1  S_1  
     e(  3 -  3) =    -10.38322  eV     1   --> B_1  D_3  S_3  
     e(  4 -  4) =     -7.93818  eV     1   --> B_2  D_4  S_4  
     e(  5 -  5) =     -0.77708  eV     1   --> B_2  D_4  S_4  
     e(  6 -  6) =      3.25847  eV     1   --> A_1  D_1  S_1  
     e(  7 -  7) =      3.84722  eV     1   --> A_1  D_1  S_1  
     e(  8 -  8) =      4.74624  eV     1   --> B_2  D_4  S_4  
     e(  9 -  9) =      6.45291  eV     1   --> A_1  D_1  S_1  
     e( 10 - 10) =      7.26871  eV     1   --> B_2  D_4  S_4  
     e( 11 - 11) =      9.88084  eV     1   --> A_1  D_1  S_1  
     e( 12 - 12) =     10.47642  eV     1   --> A_1  D_1  S_1  
     e( 13 - 13) =     10.85781  eV     1   --> B_2  D_4  S_4  
     e( 14 - 14) =     11.85991  eV     1   --> B_2  D_4  S_4  
     e( 15 - 15) =     13.26496  eV     1   --> A_1  D_1  S_1  
     e( 16 - 16) =     13.69144  eV     1   --> B_1  D_3  S_3  
     e( 17 - 17) =     13.78759  eV     1   --> B_2  D_4  S_4  
     e( 18 - 18) =     14.33425  eV     1   --> A_1  D_1  S_1  
     e( 19 - 19) =     15.41815  eV     1   --> A_1  D_1  S_1  
     e( 20 - 20) =     15.74810  eV     1   --> B_2  D_4  S_4  
     e( 21 - 21) =     17.76269  eV     1   --> A_2  D_2  S_2  
     e( 22 - 22) =     17.89763  eV     1   --> B_2  D_4  S_4  
     e( 23 - 23) =     18.06586  eV     1   --> A_1  D_1  S_1  
     e( 24 - 24) =     19.57142  eV     1   --> A_1  D_1  S_1  
     e( 25 - 25) =     20.32224  eV     1   --> B_2  D_4  S_4  
     e( 26 - 26) =     21.86980  eV     1   --> A_1  D_1  S_1  
     e( 27 - 27) =     23.39794  eV     1   --> B_1  D_3  S_3  
     e( 28 - 28) =     23.48897  eV     1   --> A_1  D_1  S_1  

 **************************************************************************

 **************************************************************************

                    xk=(   0.40000,   0.23094,   0.00000  )

     Band symmetry, C_2v (mm2)  point group:

     e(  1 -  1) =    -20.08621  eV     1   --> A_1  D_1  S_1  
     e(  2 -  2) =    -15.58365  eV     1   --> A_1  D_1  S_1  
     e(  3 -  3) =    -10.44430  eV     1   --> B_1  D_3  S_3  
     e(  4 -  4) =     -7.72408  eV     1   --> B_2  D_4  S_4  
     e(  5 -  5) =     -1.08446  eV     1   --> B_2  D_4  S_4  
     e(  6 -  6) =      3.23689  eV     1   --> A_1  D_1  S_1  
     e(  7 -  7) =      4.14843  eV     1   --> A_1  D_1  S_1  
     e(  8 -  8) =      5.05775  eV     1   --> B_2  D_4  S_4  
     e(  9 -  9) =      6.76809  eV     1   --> A_1  D_1  S_1  
     e( 10 - 10) =      7.56987  eV     1   --> B_2  D_4  S_4  
     e( 11 - 11) =     10.08353  eV     1   --> A_1  D_1  S_1  
     e( 12 - 12) =     10.21295  eV     1   --> A_1  D_1  S_1  
     e( 13 - 13) =     10.79654  eV     1   --> B_2  D_4  S_4  
     e( 14 - 14) =     11.74087  eV     1   --> B_2  D_4  S_4  
     e( 15 - 15) =     12.88738  eV     1   --> A_1  D_1  S_1  
     e( 16 - 16) =     13.47793  eV     1   --> B_2  D_4  S_4  
     e( 17 - 17) =     14.04745  eV     1   --> B_1  D_3  S_3  
     e( 18 - 18) =     14.60533  eV     1   --> A_1  D_1  S_1  
     e( 19 - 19) =     15.25962  eV     1   --> A_1  D_1  S_1  
     e( 20 - 20) =     15.56812  eV     1   --> B_2  D_4  S_4  
     e( 21 - 21) =     17.67771  eV     1   --> A_2  D_2  S_2  
     e( 22 - 22) =     17.79056  eV     1   --> A_1  D_1  S_1  
     e( 23 - 23) =     17.87943  eV     1   --> B_2  D_4  S_4  
     e( 24 - 24) =     19.74510  eV     1   --> A_1  D_1  S_1  
     e( 25 - 25) =     20.08071  eV     1   --> B_2  D_4  S_4  
     e( 26 - 26) =     21.58668  eV     1   --> A_1  D_1  S_1  
     e( 27 - 27) =     23.29889  eV     1   --> B_1  D_3  S_3  
     e( 28 - 28) =     23.39283  eV     1   --> A_1  D_1  S_1  

 **************************************************************************

 **************************************************************************

                    xk=(   0.41250,   0.23816,   0.00000  )

     Band symmetry, C_2v (mm2)  point group:

     e(  1 -  1) =    -19.86393  eV     1   --> A_1  D_1  S_1  
     e(  2 -  2) =    -15.88685  eV     1   --> A_1  D_1  S_1  
     e(  3 -  3) =    -10.49847  eV     1   --> B_1  D_3  S_3  
     e(  4 -  4) =     -7.51471  eV     1   --> B_2  D_4  S_4  
     e(  5 -  5) =     -1.37707  eV     1   --> B_2  D_4  S_4  
     e(  6 -  6) =      3.21343  eV     1   --> A_1  D_1  S_1  
     e(  7 -  7) =      4.46400  eV     1   --> A_1  D_1  S_1  
     e(  8 -  8) =      5.37834  eV     1   --> B_2  D_4  S_4  
     e(  9 -  9) =      7.09290  eV     1   --> A_1  D_1  S_1  
     e( 10 - 10) =      7.87764  eV     1   --> B_2  D_4  S_4  
     e( 11 - 11) =      9.71720  eV     1   --> A_1  D_1  S_1  
     e( 12 - 12) =     10.50825  eV     1   --> A_1  D_1  S_1  
     e( 13 - 13) =     10.55184  eV     1   --> B_2  D_4  S_4  
     e( 14 - 14) =     11.77002  eV     1   --> B_2  D_4  S_4  
     e( 15 - 15) =     12.48898  eV     1   --> A_1  D_1  S_1  
     e( 16 - 16) =     13.18692  eV     1   --> B_2  D_4  S_4  
     e( 17 - 17) =     14.37905  eV     1   --> B_1  D_3  S_3  
     e( 18 - 18) =     14.83823  eV     1   --> A_1  D_1  S_1  
     e( 19 - 19) =     15.12976  eV     1   --> A_1  D_1  S_1  
     e( 20 - 20) =     15.39648  eV     1   --> B_2  D_4  S_4  
     e( 21 - 21) =     17.57440  eV     1   --> A_1  D_1  S_1  
     e( 22 - 22) =     17.60269  eV     1   --> A_2  D_2  S_2  
     e( 23 - 23) =     17.84252  eV     1   --> B_2  D_4  S_4  
     e( 24 - 24) =     19.87450  eV     1   --> A_1  D_1  S_1  
     e( 25 - 25) =     19.91838  eV     1   --> B_2  D_4  S_4  
     e( 26 - 26) =     21.32700  eV     1   --> A_1  D_1  S_1  
     e( 27 - 27) =     23.20943  eV     1   --> B_1  D_3  S_3  
     e( 28 - 28) =     23.33657  eV     1   --> A_1  D_1  S_1  

 **************************************************************************

 **************************************************************************

                    xk=(   0.42500,   0.24537,   0.00000  )

     Band symmetry, C_2v (mm2)  point group:

     e(  1 -  1) =    -19.63796  eV     1   --> A_1  D_1  S_1  
     e(  2 -  2) =    -16.18329  eV     1   --> A_1  D_1  S_1  
     e(  3 -  3) =    -10.54563  eV     1   --> B_1  D_3  S_3  
     e(  4 -  4) =     -7.31358  eV     1   --> B_2  D_4  S_4  
     e(  5 -  5) =     -1.65104  eV     1   --> B_2  D_4  S_4  
     e(  6 -  6) =      3.19146  eV     1   --> A_1  D_1  S_1  
     e(  7 -  7) =      4.79057  eV     1   --> A_1  D_1  S_1  
     e(  8 -  8) =      5.70775  eV     1   --> B_2  D_4  S_4  
     e(  9 -  9) =      7.42715  eV     1   --> A_1  D_1  S_1  
     e( 10 - 10) =      8.19036  eV     1   --> B_2  D_4  S_4  
     e( 11 - 11) =      9.32280  eV     1   --> A_1  D_1  S_1  
     e( 12 - 12) =     10.21712  eV     1   --> B_2  D_4  S_4  
     e( 13 - 13) =     10.82908  eV     1   --> A_1  D_1  S_1  
     e( 14 - 14) =     11.82335  eV     1   --> B_2  D_4  S_4  
     e( 15 - 15) =     12.07917  eV     1   --> A_1  D_1  S_1  
     e( 16 - 16) =     12.94731  eV     1   --> B_2  D_4  S_4  
     e( 17 - 17) =     14.68150  eV     1   --> B_1  D_3  S_3  
     e( 18 - 18) =     14.78874  eV     1   --> A_1  D_1  S_1  
     e( 19 - 19) =     15.24134  eV     1   --> B_2  D_4  S_4  
     e( 20 - 20) =     15.24858  eV     1   --> A_1  D_1  S_1  
     e( 21 - 21) =     17.42174  eV     1   --> A_1  D_1  S_1  
     e( 22 - 22) =     17.53764  eV     1   --> A_2  D_2  S_2  
     e( 23 - 23) =     17.76290  eV     1   --> B_2  D_4  S_4  
     e( 24 - 24) =     19.85048  eV     1   --> B_2  D_4  S_4  
     e( 25 - 25) =     19.91599  eV     1   --> A_1  D_1  S_1  
     e( 26 - 26) =     21.14293  eV     1   --> A_1  D_1  S_1  
     e( 27 - 27) =     23.12991  eV     1   --> B_1  D_3  S_3  
     e( 28 - 28) =     23.31259  eV     1   --> A_1  D_1  S_1  

 **************************************************************************

 **************************************************************************

                    xk=(   0.43750,   0.25259,   0.00000  )

     Band symmetry, C_2v (mm2)  point group:

     e(  1 -  1) =    -19.40983  eV     1   --> A_1  D_1  S_1  
     e(  2 -  2) =    -16.47131  eV     1   --> A_1  D_1  S_1  
     e(  3 -  3) =    -10.58568  eV     1   --> B_1  D_3  S_3  
     e(  4 -  4) =     -7.12519  eV     1   --> B_2  D_4  S_4  
     e(  5 -  5) =     -1.90157  eV     1   --> B_2  D_4  S_4  
     e(  6 -  6) =      3.17210  eV     1   --> A_1  D_1  S_1  
     e(  7 -  7) =      5.12695  eV     1   --> A_1  D_1  S_1  
     e(  8 -  8) =      6.04568  eV     1   --> B_2  D_4  S_4  
     e(  9 -  9) =      7.77049  eV     1   --> A_1  D_1  S_1  
     e( 10 - 10) =      8.50377  eV     1   --> B_2  D_4  S_4  
     e( 11 - 11) =      8.92294  eV     1   --> A_1  D_1  S_1  
     e( 12 - 12) =      9.85346  eV     1   --> B_2  D_4  S_4  
     e( 13 - 13) =     11.15748  eV     1   --> A_1  D_1  S_1  
     e( 14 - 14) =     11.66533  eV     1   --> A_1  D_1  S_1  
     e( 15 - 15) =     11.78448  eV     1   --> B_2  D_4  S_4  
     e( 16 - 16) =     12.81746  eV     1   --> B_2  D_4  S_4  
     e( 17 - 17) =     14.55105  eV     1   --> A_1  D_1  S_1  
     e( 18 - 18) =     14.94973  eV     1   --> B_1  D_3  S_3  
     e( 19 - 19) =     15.10729  eV     1   --> B_2  D_4  S_4  
     e( 20 - 20) =     15.51197  eV     1   --> A_1  D_1  S_1  
     e( 21 - 21) =     17.32422  eV     1   --> A_1  D_1  S_1  
     e( 22 - 22) =     17.48258  eV     1   --> A_2  D_2  S_2  
     e( 23 - 23) =     17.63889  eV     1   --> B_2  D_4  S_4  
     e( 24 - 24) =     19.83528  eV     1   --> A_1  D_1  S_1  
     e( 25 - 25) =     19.87325  eV     1   --> B_2  D_4  S_4  
     e( 26 - 26) =     21.07442  eV     1   --> A_1  D_1  S_1  
     e( 27 - 27) =     23.06079  eV     1   --> B_1  D_3  S_3  
     e( 28 - 28) =     23.21406  eV     1   --> B_2  D_4  S_4  

 **************************************************************************

 **************************************************************************

                    xk=(   0.45000,   0.25981,   0.00000  )

     Band symmetry, C_2v (mm2)  point group:

     e(  1 -  1) =    -19.18223  eV     1   --> A_1  D_1  S_1  
     e(  2 -  2) =    -16.74808  eV     1   --> A_1  D_1  S_1  
     e(  3 -  3) =    -10.61856  eV     1   --> B_1  D_3  S_3  
     e(  4 -  4) =     -6.95525  eV     1   --> B_2  D_4  S_4  
     e(  5 -  5) =     -2.12269  eV     1   --> B_2  D_4  S_4  
     e(  6 -  6) =      3.15588  eV     1   --> A_1  D_1  S_1  
     e(  7 -  7) =      5.47248  eV     1   --> A_1  D_1  S_1  
[...]
     e( 10 - 10) =      5.19412  eV     1   --> B_2  D_4  S_4  
     e( 11 - 11) =      5.55636  eV     1   --> A_1  D_1  S_1  
     e( 12 - 12) =      6.11422  eV     1   --> A_2  D_2  S_2  
     e( 13 - 13) =      7.21414  eV     1   --> B_1  D_3  S_3  
     e( 14 - 14) =      8.85734  eV     1   --> B_2  D_4  S_4  
     e( 15 - 15) =     10.11499  eV     1   --> A_1  D_1  S_1  
     e( 16 - 16) =     12.74413  eV     1   --> B_1  D_3  S_3  
     e( 17 - 17) =     15.63992  eV     1   --> A_1  D_1  S_1  
     e( 18 - 18) =     19.00167  eV     1   --> B_1  D_3  S_3  
     e( 19 - 19) =     19.14471  eV     1   --> A_1  D_1  S_1  
     e( 20 - 20) =     21.15043  eV     1   --> B_1  D_3  S_3  
     e( 21 - 21) =     22.39958  eV     1   --> A_1  D_1  S_1  
     e( 22 - 22) =     22.46352  eV     1   --> A_2  D_2  S_2  
     e( 23 - 23) =     25.45200  eV     1   --> B_1  D_3  S_3  
     e( 24 - 24) =     25.49852  eV     1   --> B_2  D_4  S_4  
     e( 25 - 25) =     25.95394  eV     1   --> A_1  D_1  S_1  
     e( 26 - 26) =     27.01733  eV     1   --> B_1  D_3  S_3  
     e( 27 - 27) =     27.07270  eV     1   --> A_2  D_2  S_2  
     e( 28 - 28) =     28.20970  eV     1   --> B_2  D_4  S_4  

 **************************************************************************

 **************************************************************************

                    xk=(   0.11667,   0.00000,   0.00000  )

     Band symmetry, C_2v (mm2)  point group:

     e(  1 -  1) =    -23.52192  eV     1   --> A_1  D_1  S_1  
     e(  2 -  2) =    -11.57127  eV     1   --> B_1  D_3  S_3  
     e(  3 -  3) =     -8.20531  eV     1   --> B_2  D_4  S_4  
     e(  4 -  4) =     -7.81577  eV     1   --> A_1  D_1  S_1  
     e(  5 -  5) =     -0.64335  eV     1   --> A_1  D_1  S_1  
     e(  6 -  6) =      0.23930  eV     1   --> B_1  D_3  S_3  
     e(  7 -  7) =      1.92934  eV     1   --> A_1  D_1  S_1  
     e(  8 -  8) =      2.84671  eV     1   --> B_1  D_3  S_3  
     e(  9 -  9) =      4.23461  eV     1   --> A_1  D_1  S_1  
     e( 10 - 10) =      4.97312  eV     1   --> B_2  D_4  S_4  
     e( 11 - 11) =      5.45436  eV     1   --> A_1  D_1  S_1  
     e( 12 - 12) =      6.34759  eV     1   --> A_2  D_2  S_2  
     e( 13 - 13) =      7.11831  eV     1   --> B_1  D_3  S_3  
     e( 14 - 14) =      8.69521  eV     1   --> B_2  D_4  S_4  
     e( 15 - 15) =     10.01502  eV     1   --> A_1  D_1  S_1  
     e( 16 - 16) =     12.66061  eV     1   --> B_1  D_3  S_3  
     e( 17 - 17) =     15.54222  eV     1   --> A_1  D_1  S_1  
     e( 18 - 18) =     18.95310  eV     1   --> A_1  D_1  S_1  
     e( 19 - 19) =     19.09135  eV     1   --> B_1  D_3  S_3  
     e( 20 - 20) =     21.55577  eV     1   --> B_1  D_3  S_3  
     e( 21 - 21) =     22.30105  eV     1   --> A_1  D_1  S_1  
     e( 22 - 22) =     22.69586  eV     1   --> A_2  D_2  S_2  
     e( 23 - 23) =     25.38519  eV     1   --> B_1  D_3  S_3  
     e( 24 - 24) =     26.18387  eV     1   --> B_2  D_4  S_4  
     e( 25 - 25) =     26.61097  eV     1   --> A_1  D_1  S_1  
     e( 26 - 26) =     27.56172  eV     1   --> B_1  D_3  S_3  
     e( 27 - 27) =     27.73533  eV     1   --> A_2  D_2  S_2  
     e( 28 - 28) =     28.75920  eV     1   --> B_1  D_3  S_3  

 **************************************************************************

 **************************************************************************

                    xk=(   0.10000,   0.00000,   0.00000  )

     Band symmetry, C_2v (mm2)  point group:

     e(  1 -  1) =    -23.58569  eV     1   --> A_1  D_1  S_1  
     e(  2 -  2) =    -11.64736  eV     1   --> B_1  D_3  S_3  
     e(  3 -  3) =     -7.98306  eV     1   --> B_2  D_4  S_4  
     e(  4 -  4) =     -7.68261  eV     1   --> A_1  D_1  S_1  
     e(  5 -  5) =     -0.73006  eV     1   --> A_1  D_1  S_1  
     e(  6 -  6) =      0.15184  eV     1   --> B_1  D_3  S_3  
     e(  7 -  7) =      1.84207  eV     1   --> A_1  D_1  S_1  
     e(  8 -  8) =      2.76017  eV     1   --> B_1  D_3  S_3  
     e(  9 -  9) =      4.18876  eV     1   --> A_1  D_1  S_1  
     e( 10 - 10) =      4.76239  eV     1   --> B_2  D_4  S_4  
     e( 11 - 11) =      5.36561  eV     1   --> A_1  D_1  S_1  
     e( 12 - 12) =      6.55516  eV     1   --> A_2  D_2  S_2  
     e( 13 - 13) =      7.03503  eV     1   --> B_1  D_3  S_3  
     e( 14 - 14) =      8.56161  eV     1   --> B_2  D_4  S_4  
     e( 15 - 15) =      9.92823  eV     1   --> A_1  D_1  S_1  
     e( 16 - 16) =     12.58699  eV     1   --> B_1  D_3  S_3  
     e( 17 - 17) =     15.45720  eV     1   --> A_1  D_1  S_1  
     e( 18 - 18) =     18.77495  eV     1   --> A_1  D_1  S_1  
     e( 19 - 19) =     19.12497  eV     1   --> B_1  D_3  S_3  
     e( 20 - 20) =     22.02250  eV     1   --> B_1  D_3  S_3  
     e( 21 - 21) =     22.21606  eV     1   --> A_1  D_1  S_1  
     e( 22 - 22) =     22.92932  eV     1   --> A_2  D_2  S_2  
     e( 23 - 23) =     25.33830  eV     1   --> B_1  D_3  S_3  
     e( 24 - 24) =     26.88145  eV     1   --> B_2  D_4  S_4  
     e( 25 - 25) =     27.28297  eV     1   --> A_1  D_1  S_1  
     e( 26 - 26) =     27.90659  eV     1   --> B_1  D_3  S_3  
     e( 27 - 27) =     28.41542  eV     1   --> A_2  D_2  S_2  
     e( 28 - 28) =     29.07960  eV     1   --> B_1  D_3  S_3  

 **************************************************************************

 **************************************************************************

                    xk=(   0.08333,   0.00000,   0.00000  )

     Band symmetry, C_2v (mm2)  point group:

     e(  1 -  1) =    -23.63968  eV     1   --> A_1  D_1  S_1  
     e(  2 -  2) =    -11.71185  eV     1   --> B_1  D_3  S_3  
     e(  3 -  3) =     -7.78581  eV     1   --> B_2  D_4  S_4  
     e(  4 -  4) =     -7.56799  eV     1   --> A_1  D_1  S_1  
     e(  5 -  5) =     -0.80342  eV     1   --> A_1  D_1  S_1  
     e(  6 -  6) =      0.07781  eV     1   --> B_1  D_3  S_3  
     e(  7 -  7) =      1.76824  eV     1   --> A_1  D_1  S_1  
     e(  8 -  8) =      2.68690  eV     1   --> B_1  D_3  S_3  
     e(  9 -  9) =      4.15137  eV     1   --> A_1  D_1  S_1  
     e( 10 - 10) =      4.56897  eV     1   --> B_2  D_4  S_4  
     e( 11 - 11) =      5.29020  eV     1   --> A_1  D_1  S_1  
     e( 12 - 12) =      6.73482  eV     1   --> A_2  D_2  S_2  
     e( 13 - 13) =      6.96442  eV     1   --> B_1  D_3  S_3  
     e( 14 - 14) =      8.45378  eV     1   --> B_2  D_4  S_4  
     e( 15 - 15) =      9.85466  eV     1   --> A_1  D_1  S_1  
     e( 16 - 16) =     12.52390  eV     1   --> B_1  D_3  S_3  
     e( 17 - 17) =     15.38500  eV     1   --> A_1  D_1  S_1  
     e( 18 - 18) =     18.61584  eV     1   --> A_1  D_1  S_1  
     e( 19 - 19) =     19.12919  eV     1   --> B_1  D_3  S_3  
     e( 20 - 20) =     22.14448  eV     1   --> A_1  D_1  S_1  
     e( 21 - 21) =     22.51067  eV     1   --> B_1  D_3  S_3  
     e( 22 - 22) =     23.16256  eV     1   --> A_2  D_2  S_2  
     e( 23 - 23) =     25.32109  eV     1   --> B_1  D_3  S_3  
     e( 24 - 24) =     27.59049  eV     1   --> B_2  D_4  S_4  
     e( 25 - 25) =     27.96621  eV     1   --> A_1  D_1  S_1  
     e( 26 - 26) =     28.00290  eV     1   --> B_1  D_3  S_3  
     e( 27 - 27) =     28.68893  eV     1   --> A_2  D_2  S_2  
     e( 28 - 28) =     29.11528  eV     1   --> A_2  D_2  S_2  

 **************************************************************************

 **************************************************************************

                    xk=(   0.06667,   0.00000,   0.00000  )

     Band symmetry, C_2v (mm2)  point group:

     e(  1 -  1) =    -23.68388  eV     1   --> A_1  D_1  S_1  
     e(  2 -  2) =    -11.76468  eV     1   --> B_1  D_3  S_3  
     e(  3 -  3) =     -7.61747  eV     1   --> B_2  D_4  S_4  
     e(  4 -  4) =     -7.47284  eV     1   --> A_1  D_1  S_1  
     e(  5 -  5) =     -0.86344  eV     1   --> A_1  D_1  S_1  
     e(  6 -  6) =      0.01722  eV     1   --> B_1  D_3  S_3  
     e(  7 -  7) =      1.70785  eV     1   --> A_1  D_1  S_1  
     e(  8 -  8) =      2.62692  eV     1   --> B_1  D_3  S_3  
     e(  9 -  9) =      4.12184  eV     1   --> A_1  D_1  S_1  
     e( 10 - 10) =      4.39966  eV     1   --> B_2  D_4  S_4  
     e( 11 - 11) =      5.22827  eV     1   --> A_1  D_1  S_1  
     e( 12 - 12) =      6.88466  eV     1   --> A_2  D_2  S_2  
     e( 13 - 13) =      6.90656  eV     1   --> B_1  D_3  S_3  
     e( 14 - 14) =      8.36915  eV     1   --> B_2  D_4  S_4  
     e( 15 - 15) =      9.79439  eV     1   --> A_1  D_1  S_1  
     e( 16 - 16) =     12.47179  eV     1   --> B_1  D_3  S_3  
     e( 17 - 17) =     15.32572  eV     1   --> A_1  D_1  S_1  
     e( 18 - 18) =     18.48015  eV     1   --> A_1  D_1  S_1  
     e( 19 - 19) =     19.12023  eV     1   --> B_1  D_3  S_3  
     e( 20 - 20) =     22.08613  eV     1   --> A_1  D_1  S_1  
     e( 21 - 21) =     22.98261  eV     1   --> B_1  D_3  S_3  
     e( 22 - 22) =     23.39045  eV     1   --> A_2  D_2  S_2  
     e( 23 - 23) =     25.34667  eV     1   --> B_1  D_3  S_3  
     e( 24 - 24) =     27.95520  eV     1   --> B_1  D_3  S_3  
     e( 25 - 25) =     28.27058  eV     1   --> A_2  D_2  S_2  
     e( 26 - 26) =     28.30965  eV     1   --> B_2  D_4  S_4  
     e( 27 - 27) =     28.65600  eV     1   --> A_1  D_1  S_1  
     e( 28 - 28) =     29.82146  eV     1   --> A_2  D_2  S_2  

 **************************************************************************

 **************************************************************************

                    xk=(   0.05000,   0.00000,   0.00000  )

     Band symmetry, C_2v (mm2)  point group:

     e(  1 -  1) =    -23.71828  eV     1   --> A_1  D_1  S_1  
     e(  2 -  2) =    -11.80581  eV     1   --> B_1  D_3  S_3  
     e(  3 -  3) =     -7.48177  eV     1   --> B_2  D_4  S_4  
     e(  4 -  4) =     -7.39797  eV     1   --> A_1  D_1  S_1  
     e(  5 -  5) =     -0.91011  eV     1   --> A_1  D_1  S_1  
     e(  6 -  6) =     -0.02991  eV     1   --> B_1  D_3  S_3  
     e(  7 -  7) =      1.66089  eV     1   --> A_1  D_1  S_1  
     e(  8 -  8) =      2.58025  eV     1   --> B_1  D_3  S_3  
     e(  9 -  9) =      4.09959  eV     1   --> A_1  D_1  S_1  
     e( 10 - 10) =      4.26066  eV     1   --> B_2  D_4  S_4  
     e( 11 - 11) =      5.17993  eV     1   --> A_1  D_1  S_1  
     e( 12 - 12) =      6.86149  eV     1   --> B_1  D_3  S_3  
     e( 13 - 13) =      7.00303  eV     1   --> A_2  D_2  S_2  
     e( 14 - 14) =      8.30557  eV     1   --> B_2  D_4  S_4  
     e( 15 - 15) =      9.74745  eV     1   --> A_1  D_1  S_1  
     e( 16 - 16) =     12.43097  eV     1   --> B_1  D_3  S_3  
     e( 17 - 17) =     15.27947  eV     1   --> A_1  D_1  S_1  
     e( 18 - 18) =     18.37128  eV     1   --> A_1  D_1  S_1  
     e( 19 - 19) =     19.10722  eV     1   --> B_1  D_3  S_3  
     e( 20 - 20) =     22.04088  eV     1   --> A_1  D_1  S_1  
     e( 21 - 21) =     23.39637  eV     1   --> B_1  D_3  S_3  
     e( 22 - 22) =     23.60270  eV     1   --> A_2  D_2  S_2  
     e( 23 - 23) =     25.43244  eV     1   --> B_1  D_3  S_3  
     e( 24 - 24) =     27.82409  eV     1   --> B_1  D_3  S_3  
     e( 25 - 25) =     27.89989  eV     1   --> A_2  D_2  S_2  
     e( 26 - 26) =     29.03635  eV     1   --> B_2  D_4  S_4  
     e( 27 - 27) =     29.34441  eV     1   --> A_1  D_1  S_1  
     e( 28 - 28) =     30.26398  eV     1   --> A_1  D_1  S_1  

 **************************************************************************

 **************************************************************************

                    xk=(   0.03333,   0.00000,   0.00000  )

     Band symmetry, C_2v (mm2)  point group:

     e(  1 -  1) =    -23.74286  eV     1   --> A_1  D_1  S_1  
     e(  2 -  2) =    -11.83521  eV     1   --> B_1  D_3  S_3  
     e(  3 -  3) =     -7.38209  eV     1   --> B_2  D_4  S_4  
     e(  4 -  4) =     -7.34402  eV     1   --> A_1  D_1  S_1  
     e(  5 -  5) =     -0.94345  eV     1   --> A_1  D_1  S_1  
     e(  6 -  6) =     -0.06358  eV     1   --> B_1  D_3  S_3  
     e(  7 -  7) =      1.62736  eV     1   --> A_1  D_1  S_1  
     e(  8 -  8) =      2.54691  eV     1   --> B_1  D_3  S_3  
     e(  9 -  9) =      4.08411  eV     1   --> A_1  D_1  S_1  
     e( 10 - 10) =      4.15727  eV     1   --> B_2  D_4  S_4  
     e( 11 - 11) =      5.14529  eV     1   --> A_1  D_1  S_1  
     e( 12 - 12) =      6.82927  eV     1   --> B_1  D_3  S_3  
     e( 13 - 13) =      7.08857  eV     1   --> A_2  D_2  S_2  
     e( 14 - 14) =      8.26136  eV     1   --> B_2  D_4  S_4  
     e( 15 - 15) =      9.71389  eV     1   --> A_1  D_1  S_1  
     e( 16 - 16) =     12.40167  eV     1   --> B_1  D_3  S_3  
     e( 17 - 17) =     15.24636  eV     1   --> A_1  D_1  S_1  
     e( 18 - 18) =     18.29176  eV     1   --> A_1  D_1  S_1  
     e( 19 - 19) =     19.09525  eV     1   --> B_1  D_3  S_3  
     e( 20 - 20) =     22.00863  eV     1   --> A_1  D_1  S_1  
     e( 21 - 21) =     23.70803  eV     1   --> B_1  D_3  S_3  
     e( 22 - 22) =     23.78233  eV     1   --> A_2  D_2  S_2  
     e( 23 - 23) =     25.58750  eV     1   --> B_1  D_3  S_3  
     e( 24 - 24) =     27.60263  eV     1   --> A_2  D_2  S_2  
     e( 25 - 25) =     27.63387  eV     1   --> B_1  D_3  S_3  
     e( 26 - 26) =     29.76418  eV     1   --> B_2  D_4  S_4  
     e( 27 - 27) =     30.01309  eV     1   --> A_1  D_1  S_1  
     e( 28 - 28) =     30.23562  eV     1   --> A_1  D_1  S_1  

 **************************************************************************

 **************************************************************************

                    xk=(   0.01667,   0.00000,   0.00000  )

     Band symmetry, C_2v (mm2)  point group:

     e(  1 -  1) =    -23.75760  eV     1   --> A_1  D_1  S_1  
     e(  2 -  2) =    -11.85286  eV     1   --> B_1  D_3  S_3  
     e(  3 -  3) =     -7.32111  eV     1   --> B_2  D_4  S_4  
     e(  4 -  4) =     -7.31146  eV     1   --> A_1  D_1  S_1  
     e(  5 -  5) =     -0.96345  eV     1   --> A_1  D_1  S_1  
     e(  6 -  6) =     -0.08379  eV     1   --> B_1  D_3  S_3  
     e(  7 -  7) =      1.60724  eV     1   --> A_1  D_1  S_1  
     e(  8 -  8) =      2.52690  eV     1   --> B_1  D_3  S_3  
     e(  9 -  9) =      4.07500  eV     1   --> A_1  D_1  S_1  
     e( 10 - 10) =      4.09353  eV     1   --> B_2  D_4  S_4  
     e( 11 - 11) =      5.12447  eV     1   --> A_1  D_1  S_1  
     e( 12 - 12) =      6.80992  eV     1   --> B_1  D_3  S_3  
     e( 13 - 13) =      7.14031  eV     1   --> A_2  D_2  S_2  
     e( 14 - 14) =      8.23531  eV     1   --> B_2  D_4  S_4  
     e( 15 - 15) =      9.69374  eV     1   --> A_1  D_1  S_1  
     e( 16 - 16) =     12.38403  eV     1   --> B_1  D_3  S_3  
     e( 17 - 17) =     15.22646  eV     1   --> A_1  D_1  S_1  
     e( 18 - 18) =     18.24335  eV     1   --> A_1  D_1  S_1  
     e( 19 - 19) =     19.08713  eV     1   --> B_1  D_3  S_3  
     e( 20 - 20) =     21.98931  eV     1   --> A_1  D_1  S_1  
     e( 21 - 21) =     23.89186  eV     1   --> B_1  D_3  S_3  
     e( 22 - 22) =     23.90611  eV     1   --> A_2  D_2  S_2  
     e( 23 - 23) =     25.77239  eV     1   --> B_1  D_3  S_3  
     e( 24 - 24) =     27.40665  eV     1   --> A_2  D_2  S_2  
     e( 25 - 25) =     27.43355  eV     1   --> B_1  D_3  S_3  
     e( 26 - 26) =     30.05502  eV     1   --> B_1  D_3  S_3  
     e( 27 - 27) =     30.21429  eV     1   --> A_1  D_1  S_1  
     e( 28 - 28) =     30.46942  eV     1   --> B_2  D_4  S_4  

 **************************************************************************

 **************************************************************************

                    xk=(   0.00000,   0.00000,   0.00000  )

     point group D_6h(6/mmm)
     there are 12 classes
     the character table:

       E     2C6   2C3   C2    3C2'  3C2'' i     2S3   2S6   s_h   3s_d  3s_v 
A_1g   1.00  1.00  1.00  1.00  1.00  1.00  1.00  1.00  1.00  1.00  1.00  1.00
A_2g   1.00  1.00  1.00  1.00 -1.00 -1.00  1.00  1.00  1.00  1.00 -1.00 -1.00
B_1g   1.00 -1.00  1.00 -1.00  1.00 -1.00  1.00 -1.00  1.00 -1.00  1.00 -1.00
B_2g   1.00 -1.00  1.00 -1.00 -1.00  1.00  1.00 -1.00  1.00 -1.00 -1.00  1.00
E_1g   2.00  1.00 -1.00 -2.00  0.00  0.00  2.00  1.00 -1.00 -2.00  0.00  0.00
E_2g   2.00 -1.00 -1.00  2.00  0.00  0.00  2.00 -1.00 -1.00  2.00  0.00  0.00
A_1u   1.00  1.00  1.00  1.00  1.00  1.00 -1.00 -1.00 -1.00 -1.00 -1.00 -1.00
A_2u   1.00  1.00  1.00  1.00 -1.00 -1.00 -1.00 -1.00 -1.00 -1.00  1.00  1.00
B_1u   1.00 -1.00  1.00 -1.00  1.00 -1.00 -1.00  1.00 -1.00  1.00 -1.00  1.00
B_2u   1.00 -1.00  1.00 -1.00 -1.00  1.00 -1.00  1.00 -1.00  1.00  1.00 -1.00
E_1u   2.00  1.00 -1.00 -2.00  0.00  0.00 -2.00 -1.00  1.00  2.00  0.00  0.00
E_2u   2.00 -1.00 -1.00  2.00  0.00  0.00 -2.00  1.00  1.00 -2.00  0.00  0.00

     the symmetry operations in each class and the name of the first element:

     E        1
                                                                 
     2C6      5    6
                                                                 
     2C3      7    8
                                                                 
     C2       2
                                                                 
     3C2'     4   12   11
                                                                 
     3C2''    3    9   10
                                                                 
     i       13
                                                                 
     2S3     17   18
                                                                 
     2S6     19   20
                                                                 
     s_h     14
                                                                 
     3s_d    16   24   23
                                                                 
     3s_v    15   21   22
                                                                 

     Band symmetry, D_6h(6/mmm) point group:

     e(  1 -  1) =    -23.76252  eV     1   --> A_1g           
     e(  2 -  2) =    -11.85874  eV     1   --> A_2u           
     e(  3 -  4) =     -7.30058  eV     2   --> E_2g           
     e(  5 -  5) =     -0.97012  eV     1   --> A_1g           
     e(  6 -  6) =     -0.09053  eV     1   --> A_2u           
     e(  7 -  7) =      1.60053  eV     1   --> A_1g           
     e(  8 -  8) =      2.52023  eV     1   --> A_2u           
     e(  9 - 10) =      4.07199  eV     2   --> E_1u           
     e( 11 - 11) =      5.11752  eV     1   --> A_1g           
     e( 12 - 12) =      6.80347  eV     1   --> A_2u           
     e( 13 - 13) =      7.15762  eV     1   --> B_1g           
     e( 14 - 14) =      8.22670  eV     1   --> B_2u           
     e( 15 - 15) =      9.68702  eV     1   --> A_1g           
     e( 16 - 16) =     12.37814  eV     1   --> A_2u           
     e( 17 - 17) =     15.21982  eV     1   --> A_1g           
     e( 18 - 18) =     18.22710  eV     1   --> A_1g           
     e( 19 - 19) =     19.08428  eV     1   --> A_2u           
     e( 20 - 20) =     21.98287  eV     1   --> A_1g           
     e( 21 - 22) =     23.95080  eV     2   --> E_2u           
     e( 23 - 23) =     25.86517  eV     1   --> A_2u           
     e( 24 - 25) =     27.33762  eV     2   --> E_1g           
     e( 26 - 26) =     29.97727  eV     1   --> A_2u           
     e( 27 - 27) =     30.20878  eV     1   --> A_1g           
     e( 28 - 28) =     30.93607  eV     1   -->   ?

 **************************************************************************
 
     BANDS        :     24.57s CPU     37.82s WALL

 
   This run was terminated on:  22:50:35  24Jun2022            

=------------------------------------------------------------------------------=
   JOB DONE.
=------------------------------------------------------------------------------=
