
     Program PWSCF v.7.0 starts on 24Jun2022 at 22:49: 8 

     This program is part of the open-source Quantum ESPRESSO suite
     for quantum simulation of materials; please cite
         "P. Giannozzi et al., J. Phys.:Condens. Matter 21 395502 (2009);
         "P. Giannozzi et al., J. Phys.:Condens. Matter 29 465901 (2017);
         "P. Giannozzi et al., J. Chem. Phys. 152 154105 (2020);
          URL http://www.quantum-espresso.org", 
     in publications or presentations arising from this work. More details at
     http://www.quantum-espresso.org/quote

     Parallel version (MPI & OpenMP), running on      28 processor cores
     Number of MPI processes:                28
     Threads/MPI process:                     1

     MPI processes distributed on     1 nodes
     K-points division:     npool     =       7
     R & G space division:  proc/nbgrp/npool/nimage =       4
     54624 MiB available memory on the printing compute node when the environment starts
 
     Waiting for input...
     Reading input from standard input

     Current dimensions of program PWSCF are:
     Max number of different atomic species (ntypx) = 10
     Max number of k-points (npk) =  40000
     Max angular momentum in pseudopotentials (lmaxx) =  4
     Message from routine iosys:
     wrong startingpot: use default (2)

     Atomic positions and unit cell read from directory:
     ./graphene.save/
     Atomic positions from file used, from input discarded
 
     file C.pbe-n-kjpaw_psl.1.0.0.UPF: wavefunction(s)  2S 2P renormalized

     Subspace diagonalization in iterative solution of the eigenvalue problem:
     one sub-group per band group will be used
     scalapack distributed-memory algorithm (size of sub-group:  2*  2 procs)

 
     Parallelization info
     --------------------
     sticks:   dense  smooth     PW     G-vecs:    dense   smooth      PW
     Min         180     118     37                23682    12854    2173
     Max         181     119     38                23699    12877    2184
     Sum         721     475    151                94757    51479    8723
 
     Using Slab Decomposition
 


     bravais-lattice index     =            4
     lattice parameter (alat)  =       4.6623  a.u.
     unit-cell volume          =     533.6125 (a.u.)^3
     number of atoms/cell      =            2
     number of atomic types    =            1
     number of electrons       =         8.00
     number of Kohn-Sham states=           28
     kinetic-energy cutoff     =      80.0000  Ry
     charge density cutoff     =     480.0000  Ry
     Exchange-correlation= SLA  PW   PBX  PBC
                           (   1   4   3   4   0   0   0)

     celldm(1)=   4.662326  celldm(2)=   0.000000  celldm(3)=   6.079775
     celldm(4)=   0.000000  celldm(5)=   0.000000  celldm(6)=   0.000000

     crystal axes: (cart. coord. in units of alat)
               a(1) = (   1.000000   0.000000   0.000000 )  
               a(2) = (  -0.500000   0.866025   0.000000 )  
               a(3) = (   0.000000   0.000000   6.079775 )  

     reciprocal axes: (cart. coord. in units 2 pi/alat)
               b(1) = (  1.000000  0.577350  0.000000 )  
               b(2) = (  0.000000  1.154701  0.000000 )  
               b(3) = (  0.000000  0.000000  0.164480 )  

Write cell and positions for Wanner90.x
begin unit_cell_cart
Bohr
        4.6623259   0.0000000   0.0000000
       -2.3311629   4.0376926   0.0000000
        0.0000000   0.0000000  28.3458918
end unit_cell_cart

begin atoms_cart
Bohr
        C          -0.0000000   2.6917951  14.1729459
        C           2.3311629   1.3458975  14.1729459
end atoms_cart

     PseudoPot. # 1 for C  read from file:
     ./pseudo/C.pbe-n-kjpaw_psl.1.0.0.UPF
     MD5 check sum: 6fec8efd722f5d988670a8dc528584a2
     Pseudo is Projector augmented-wave + core cor, Zval =  4.0
     Generated using "atomic" code by A. Dal Corso  v.5.1.2
     Shape of augmentation charge: PSQ
     Using radial grid of 1073 points,  4 beta functions with: 
                l(1) =   0
                l(2) =   0
                l(3) =   1
                l(4) =   1
     Q(r) pseudized with 0 coefficients 


     atomic species   valence    mass     pseudopotential
        C              4.00    12.01070     C ( 1.00)

     24 Sym. Ops., with inversion, found


                                    s                        frac. trans.

      isym =  1     identity                                     

 cryst.   s( 1) = (     1          0          0      )
                  (     0          1          0      )
                  (     0          0          1      )

 cart.    s( 1) = (  1.0000000  0.0000000  0.0000000 )
                  (  0.0000000  1.0000000  0.0000000 )
                  (  0.0000000  0.0000000  1.0000000 )


      isym =  2     180 deg rotation - cart. axis [0,0,1]        

 cryst.   s( 2) = (    -1          0          0      )
                  (     0         -1          0      )
                  (     0          0          1      )

 cart.    s( 2) = ( -1.0000000  0.0000000  0.0000000 )
                  (  0.0000000 -1.0000000  0.0000000 )
                  (  0.0000000  0.0000000  1.0000000 )


      isym =  3     180 deg rotation - cart. axis [0,1,0]        

 cryst.   s( 3) = (    -1          0          0      )
                  (     1          1          0      )
                  (     0          0         -1      )

 cart.    s( 3) = ( -1.0000000  0.0000000  0.0000000 )
                  (  0.0000000  1.0000000  0.0000000 )
                  (  0.0000000  0.0000000 -1.0000000 )


      isym =  4     180 deg rotation - cart. axis [1,0,0]        

 cryst.   s( 4) = (     1          0          0      )
                  (    -1         -1          0      )
                  (     0          0         -1      )

 cart.    s( 4) = (  1.0000000  0.0000000  0.0000000 )
                  (  0.0000000 -1.0000000  0.0000000 )
                  (  0.0000000  0.0000000 -1.0000000 )


      isym =  5      60 deg rotation - cryst. axis [0,0,1]       

 cryst.   s( 5) = (     1          1          0      )
                  (    -1          0          0      )
                  (     0          0          1      )

 cart.    s( 5) = (  0.5000000 -0.8660254  0.0000000 )
                  (  0.8660254  0.5000000  0.0000000 )
                  (  0.0000000  0.0000000  1.0000000 )


      isym =  6      60 deg rotation - cryst. axis [0,0,-1]      

 cryst.   s( 6) = (     0         -1          0      )
                  (     1          1          0      )
                  (     0          0          1      )

 cart.    s( 6) = (  0.5000000  0.8660254  0.0000000 )
                  ( -0.8660254  0.5000000  0.0000000 )
                  (  0.0000000  0.0000000  1.0000000 )


      isym =  7     120 deg rotation - cryst. axis [0,0,1]       

 cryst.   s( 7) = (     0          1          0      )
                  (    -1         -1          0      )
                  (     0          0          1      )

 cart.    s( 7) = ( -0.5000000 -0.8660254  0.0000000 )
                  (  0.8660254 -0.5000000  0.0000000 )
                  (  0.0000000  0.0000000  1.0000000 )


      isym =  8     120 deg rotation - cryst. axis [0,0,-1]      

 cryst.   s( 8) = (    -1         -1          0      )
                  (     1          0          0      )
                  (     0          0          1      )

 cart.    s( 8) = ( -0.5000000  0.8660254  0.0000000 )
                  ( -0.8660254 -0.5000000  0.0000000 )
                  (  0.0000000  0.0000000  1.0000000 )


      isym =  9     180 deg rotation - cryst. axis [1,-1,0]      

 cryst.   s( 9) = (     0         -1          0      )
                  (    -1          0          0      )
                  (     0          0         -1      )

 cart.    s( 9) = (  0.5000000 -0.8660254  0.0000000 )
                  ( -0.8660254 -0.5000000  0.0000000 )
                  (  0.0000000  0.0000000 -1.0000000 )


      isym = 10     180 deg rotation - cryst. axis [2,1,0]       

 cryst.   s(10) = (     1          1          0      )
                  (     0         -1          0      )
                  (     0          0         -1      )

 cart.    s(10) = (  0.5000000  0.8660254  0.0000000 )
                  (  0.8660254 -0.5000000  0.0000000 )
                  (  0.0000000  0.0000000 -1.0000000 )


      isym = 11     180 deg rotation - cryst. axis [0,1,0]       

 cryst.   s(11) = (    -1         -1          0      )
                  (     0          1          0      )
                  (     0          0         -1      )

 cart.    s(11) = ( -0.5000000 -0.8660254  0.0000000 )
                  ( -0.8660254  0.5000000  0.0000000 )
                  (  0.0000000  0.0000000 -1.0000000 )


      isym = 12     180 deg rotation - cryst. axis [1,1,0]       

 cryst.   s(12) = (     0          1          0      )
                  (     1          0          0      )
                  (     0          0         -1      )

 cart.    s(12) = ( -0.5000000  0.8660254  0.0000000 )
                  (  0.8660254  0.5000000  0.0000000 )
                  (  0.0000000  0.0000000 -1.0000000 )


      isym = 13     inversion                                    

 cryst.   s(13) = (    -1          0          0      )
                  (     0         -1          0      )
                  (     0          0         -1      )

 cart.    s(13) = ( -1.0000000  0.0000000  0.0000000 )
                  (  0.0000000 -1.0000000  0.0000000 )
                  (  0.0000000  0.0000000 -1.0000000 )


      isym = 14     inv. 180 deg rotation - cart. axis [0,0,1]   

 cryst.   s(14) = (     1          0          0      )
                  (     0          1          0      )
                  (     0          0         -1      )

 cart.    s(14) = (  1.0000000  0.0000000  0.0000000 )
                  (  0.0000000  1.0000000  0.0000000 )
                  (  0.0000000  0.0000000 -1.0000000 )


      isym = 15     inv. 180 deg rotation - cart. axis [0,1,0]   

 cryst.   s(15) = (     1          0          0      )
                  (    -1         -1          0      )
                  (     0          0          1      )

 cart.    s(15) = (  1.0000000  0.0000000  0.0000000 )
                  (  0.0000000 -1.0000000  0.0000000 )
                  (  0.0000000  0.0000000  1.0000000 )


      isym = 16     inv. 180 deg rotation - cart. axis [1,0,0]   

 cryst.   s(16) = (    -1          0          0      )
                  (     1          1          0      )
                  (     0          0          1      )

 cart.    s(16) = ( -1.0000000  0.0000000  0.0000000 )
                  (  0.0000000  1.0000000  0.0000000 )
                  (  0.0000000  0.0000000  1.0000000 )


      isym = 17     inv.  60 deg rotation - cryst. axis [0,0,1]  

 cryst.   s(17) = (    -1         -1          0      )
                  (     1          0          0      )
                  (     0          0         -1      )

 cart.    s(17) = ( -0.5000000  0.8660254  0.0000000 )
                  ( -0.8660254 -0.5000000  0.0000000 )
                  (  0.0000000  0.0000000 -1.0000000 )


      isym = 18     inv.  60 deg rotation - cryst. axis [0,0,-1] 

 cryst.   s(18) = (     0          1          0      )
                  (    -1         -1          0      )
                  (     0          0         -1      )

 cart.    s(18) = ( -0.5000000 -0.8660254  0.0000000 )
                  (  0.8660254 -0.5000000  0.0000000 )
                  (  0.0000000  0.0000000 -1.0000000 )


      isym = 19     inv. 120 deg rotation - cryst. axis [0,0,1]  

 cryst.   s(19) = (     0         -1          0      )
                  (     1          1          0      )
                  (     0          0         -1      )

 cart.    s(19) = (  0.5000000  0.8660254  0.0000000 )
                  ( -0.8660254  0.5000000  0.0000000 )
                  (  0.0000000  0.0000000 -1.0000000 )


      isym = 20     inv. 120 deg rotation - cryst. axis [0,0,-1] 

 cryst.   s(20) = (     1          1          0      )
                  (    -1          0          0      )
                  (     0          0         -1      )

 cart.    s(20) = (  0.5000000 -0.8660254  0.0000000 )
                  (  0.8660254  0.5000000  0.0000000 )
                  (  0.0000000  0.0000000 -1.0000000 )


      isym = 21     inv. 180 deg rotation - cryst. axis [1,-1,0] 

 cryst.   s(21) = (     0          1          0      )
                  (     1          0          0      )
                  (     0          0          1      )

 cart.    s(21) = ( -0.5000000  0.8660254  0.0000000 )
                  (  0.8660254  0.5000000  0.0000000 )
                  (  0.0000000  0.0000000  1.0000000 )


      isym = 22     inv. 180 deg rotation - cryst. axis [2,1,0]  

 cryst.   s(22) = (    -1         -1          0      )
                  (     0          1          0      )
                  (     0          0          1      )

 cart.    s(22) = ( -0.5000000 -0.8660254  0.0000000 )
                  ( -0.8660254  0.5000000  0.0000000 )
                  (  0.0000000  0.0000000  1.0000000 )


      isym = 23     inv. 180 deg rotation - cryst. axis [0,1,0]  

 cryst.   s(23) = (     1          1          0      )
                  (     0         -1          0      )
                  (     0          0          1      )

 cart.    s(23) = (  0.5000000  0.8660254  0.0000000 )
                  (  0.8660254 -0.5000000  0.0000000 )
                  (  0.0000000  0.0000000  1.0000000 )


      isym = 24     inv. 180 deg rotation - cryst. axis [1,1,0]  

 cryst.   s(24) = (     0         -1          0      )
                  (    -1          0          0      )
                  (     0          0          1      )

 cart.    s(24) = (  0.5000000 -0.8660254  0.0000000 )
                  ( -0.8660254 -0.5000000  0.0000000 )
                  (  0.0000000  0.0000000  1.0000000 )


     point group D_6h(6/mmm)
     there are 12 classes
     the character table:

       E     2C6   2C3   C2    3C2'  3C2'' i     2S3   2S6   s_h   3s_d  3s_v 
A_1g   1.00  1.00  1.00  1.00  1.00  1.00  1.00  1.00  1.00  1.00  1.00  1.00
A_2g   1.00  1.00  1.00  1.00 -1.00 -1.00  1.00  1.00  1.00  1.00 -1.00 -1.00
B_1g   1.00 -1.00  1.00 -1.00  1.00 -1.00  1.00 -1.00  1.00 -1.00  1.00 -1.00
B_2g   1.00 -1.00  1.00 -1.00 -1.00  1.00  1.00 -1.00  1.00 -1.00 -1.00  1.00
E_1g   2.00  1.00 -1.00 -2.00  0.00  0.00  2.00  1.00 -1.00 -2.00  0.00  0.00
E_2g   2.00 -1.00 -1.00  2.00  0.00  0.00  2.00 -1.00 -1.00  2.00  0.00  0.00
A_1u   1.00  1.00  1.00  1.00  1.00  1.00 -1.00 -1.00 -1.00 -1.00 -1.00 -1.00
A_2u   1.00  1.00  1.00  1.00 -1.00 -1.00 -1.00 -1.00 -1.00 -1.00  1.00  1.00
B_1u   1.00 -1.00  1.00 -1.00  1.00 -1.00 -1.00  1.00 -1.00  1.00 -1.00  1.00
B_2u   1.00 -1.00  1.00 -1.00 -1.00  1.00 -1.00  1.00 -1.00  1.00  1.00 -1.00
E_1u   2.00  1.00 -1.00 -2.00  0.00  0.00 -2.00 -1.00  1.00  2.00  0.00  0.00
E_2u   2.00 -1.00 -1.00  2.00  0.00  0.00 -2.00  1.00  1.00 -2.00  0.00  0.00

     the symmetry operations in each class and the name of the first element:

     E        1
          identity                                               
     2C6      5    6
           60 deg rotation - cryst. axis [0,0,1]                 
     2C3      7    8
          120 deg rotation - cryst. axis [0,0,1]                 
     C2       2
          180 deg rotation - cart. axis [0,0,1]                  
     3C2'     4   12   11
          180 deg rotation - cart. axis [1,0,0]                  
     3C2''    3    9   10
          180 deg rotation - cart. axis [0,1,0]                  
     i       13
          inversion                                              
     2S3     17   18
          inv.  60 deg rotation - cryst. axis [0,0,1]            
     2S6     19   20
          inv. 120 deg rotation - cryst. axis [0,0,1]            
     s_h     14
          inv. 180 deg rotation - cart. axis [0,0,1]             
     3s_d    16   24   23
          inv. 180 deg rotation - cart. axis [1,0,0]             
     3s_v    15   21   22
          inv. 180 deg rotation - cart. axis [0,1,0]             

   Cartesian axes

     site n.     atom                  positions (alat units)
         1           C   tau(   1) = (  -0.0000000   0.5773503   3.0398875  )
         2           C   tau(   2) = (   0.5000000   0.2886751   3.0398875  )

   Crystallographic axes

     site n.     atom                  positions (cryst. coord.)
         1           C   tau(   1) = (  0.3333333  0.6666667  0.5000000  )
         2           C   tau(   2) = (  0.6666667  0.3333333  0.5000000  )

     number of k points=   105  Methfessel-Paxton smearing, width (Ry)=  0.0100
                       cart. coord. in units 2pi/alat
        k(    1) = (   0.0000000   0.0000000   0.0000000), wk =   0.0190476
        k(    2) = (   0.0125000   0.0072169   0.0000000), wk =   0.0190476
        k(    3) = (   0.0250000   0.0144338   0.0000000), wk =   0.0190476
        k(    4) = (   0.0375000   0.0216506   0.0000000), wk =   0.0190476
        k(    5) = (   0.0500000   0.0288675   0.0000000), wk =   0.0190476
        k(    6) = (   0.0625000   0.0360844   0.0000000), wk =   0.0190476
        k(    7) = (   0.0750000   0.0433013   0.0000000), wk =   0.0190476
        k(    8) = (   0.0875000   0.0505181   0.0000000), wk =   0.0190476
        k(    9) = (   0.1000000   0.0577350   0.0000000), wk =   0.0190476
        k(   10) = (   0.1125000   0.0649519   0.0000000), wk =   0.0190476
        k(   11) = (   0.1250000   0.0721688   0.0000000), wk =   0.0190476
        k(   12) = (   0.1375000   0.0793857   0.0000000), wk =   0.0190476
        k(   13) = (   0.1500000   0.0866025   0.0000000), wk =   0.0190476
        k(   14) = (   0.1625000   0.0938194   0.0000000), wk =   0.0190476
        k(   15) = (   0.1750000   0.1010363   0.0000000), wk =   0.0190476
        k(   16) = (   0.1875000   0.1082532   0.0000000), wk =   0.0190476
        k(   17) = (   0.2000000   0.1154701   0.0000000), wk =   0.0190476
        k(   18) = (   0.2125000   0.1226869   0.0000000), wk =   0.0190476
        k(   19) = (   0.2250000   0.1299038   0.0000000), wk =   0.0190476
        k(   20) = (   0.2375000   0.1371207   0.0000000), wk =   0.0190476
        k(   21) = (   0.2500000   0.1443376   0.0000000), wk =   0.0190476
        k(   22) = (   0.2625000   0.1515544   0.0000000), wk =   0.0190476
        k(   23) = (   0.2750000   0.1587713   0.0000000), wk =   0.0190476
        k(   24) = (   0.2875000   0.1659882   0.0000000), wk =   0.0190476
        k(   25) = (   0.3000000   0.1732051   0.0000000), wk =   0.0190476
        k(   26) = (   0.3125000   0.1804220   0.0000000), wk =   0.0190476
        k(   27) = (   0.3250000   0.1876388   0.0000000), wk =   0.0190476
        k(   28) = (   0.3375000   0.1948557   0.0000000), wk =   0.0190476
        k(   29) = (   0.3500000   0.2020726   0.0000000), wk =   0.0190476
        k(   30) = (   0.3625000   0.2092895   0.0000000), wk =   0.0190476
        k(   31) = (   0.3750000   0.2165064   0.0000000), wk =   0.0190476
        k(   32) = (   0.3875000   0.2237232   0.0000000), wk =   0.0190476
        k(   33) = (   0.4000000   0.2309401   0.0000000), wk =   0.0190476
        k(   34) = (   0.4125000   0.2381570   0.0000000), wk =   0.0190476
        k(   35) = (   0.4250000   0.2453739   0.0000000), wk =   0.0190476
        k(   36) = (   0.4375000   0.2525907   0.0000000), wk =   0.0190476
        k(   37) = (   0.4500000   0.2598076   0.0000000), wk =   0.0190476
        k(   38) = (   0.4625000   0.2670245   0.0000000), wk =   0.0190476
        k(   39) = (   0.4750000   0.2742414   0.0000000), wk =   0.0190476
        k(   40) = (   0.4875000   0.2814583   0.0000000), wk =   0.0190476
        k(   41) = (   0.5000000   0.2886751   0.0000000), wk =   0.0190476
        k(   42) = (   0.5069444   0.2766470   0.0000000), wk =   0.0190476
        k(   43) = (   0.5138889   0.2646189   0.0000000), wk =   0.0190476
        k(   44) = (   0.5208333   0.2525907   0.0000000), wk =   0.0190476
        k(   45) = (   0.5277778   0.2405626   0.0000000), wk =   0.0190476
        k(   46) = (   0.5347222   0.2285345   0.0000000), wk =   0.0190476
        k(   47) = (   0.5416667   0.2165064   0.0000000), wk =   0.0190476
        k(   48) = (   0.5486111   0.2044782   0.0000000), wk =   0.0190476
        k(   49) = (   0.5555556   0.1924501   0.0000000), wk =   0.0190476
        k(   50) = (   0.5625000   0.1804220   0.0000000), wk =   0.0190476
        k(   51) = (   0.5694444   0.1683938   0.0000000), wk =   0.0190476
        k(   52) = (   0.5763889   0.1563657   0.0000000), wk =   0.0190476
        k(   53) = (   0.5833333   0.1443376   0.0000000), wk =   0.0190476
        k(   54) = (   0.5902778   0.1323094   0.0000000), wk =   0.0190476
        k(   55) = (   0.5972222   0.1202813   0.0000000), wk =   0.0190476
        k(   56) = (   0.6041667   0.1082532   0.0000000), wk =   0.0190476
        k(   57) = (   0.6111111   0.0962250   0.0000000), wk =   0.0190476
        k(   58) = (   0.6180556   0.0841969   0.0000000), wk =   0.0190476
        k(   59) = (   0.6250000   0.0721688   0.0000000), wk =   0.0190476
        k(   60) = (   0.6319444   0.0601407   0.0000000), wk =   0.0190476
        k(   61) = (   0.6388889   0.0481125   0.0000000), wk =   0.0190476
        k(   62) = (   0.6458333   0.0360844   0.0000000), wk =   0.0190476
        k(   63) = (   0.6527778   0.0240563   0.0000000), wk =   0.0190476
        k(   64) = (   0.6597222   0.0120281   0.0000000), wk =   0.0190476
        k(   65) = (   0.6666667   0.0000000   0.0000000), wk =   0.0190476
        k(   66) = (   0.6500000   0.0000000   0.0000000), wk =   0.0190476
        k(   67) = (   0.6333333   0.0000000   0.0000000), wk =   0.0190476
        k(   68) = (   0.6166667   0.0000000   0.0000000), wk =   0.0190476
        k(   69) = (   0.6000000   0.0000000   0.0000000), wk =   0.0190476
        k(   70) = (   0.5833333   0.0000000   0.0000000), wk =   0.0190476
        k(   71) = (   0.5666667   0.0000000   0.0000000), wk =   0.0190476
        k(   72) = (   0.5500000   0.0000000   0.0000000), wk =   0.0190476
        k(   73) = (   0.5333333   0.0000000   0.0000000), wk =   0.0190476
        k(   74) = (   0.5166667   0.0000000   0.0000000), wk =   0.0190476
        k(   75) = (   0.5000000   0.0000000   0.0000000), wk =   0.0190476
        k(   76) = (   0.4833333   0.0000000   0.0000000), wk =   0.0190476
        k(   77) = (   0.4666667   0.0000000   0.0000000), wk =   0.0190476
        k(   78) = (   0.4500000   0.0000000   0.0000000), wk =   0.0190476
        k(   79) = (   0.4333333   0.0000000   0.0000000), wk =   0.0190476
        k(   80) = (   0.4166667   0.0000000   0.0000000), wk =   0.0190476
        k(   81) = (   0.4000000   0.0000000   0.0000000), wk =   0.0190476
        k(   82) = (   0.3833333   0.0000000   0.0000000), wk =   0.0190476
        k(   83) = (   0.3666667   0.0000000   0.0000000), wk =   0.0190476
        k(   84) = (   0.3500000   0.0000000   0.0000000), wk =   0.0190476
        k(   85) = (   0.3333333   0.0000000   0.0000000), wk =   0.0190476
        k(   86) = (   0.3166667   0.0000000   0.0000000), wk =   0.0190476
        k(   87) = (   0.3000000   0.0000000   0.0000000), wk =   0.0190476
        k(   88) = (   0.2833333   0.0000000   0.0000000), wk =   0.0190476
        k(   89) = (   0.2666667   0.0000000   0.0000000), wk =   0.0190476
        k(   90) = (   0.2500000   0.0000000   0.0000000), wk =   0.0190476
        k(   91) = (   0.2333333   0.0000000   0.0000000), wk =   0.0190476
        k(   92) = (   0.2166667   0.0000000   0.0000000), wk =   0.0190476
        k(   93) = (   0.2000000   0.0000000   0.0000000), wk =   0.0190476
        k(   94) = (   0.1833333   0.0000000   0.0000000), wk =   0.0190476
        k(   95) = (   0.1666667   0.0000000   0.0000000), wk =   0.0190476
        k(   96) = (   0.1500000   0.0000000   0.0000000), wk =   0.0190476
        k(   97) = (   0.1333333   0.0000000   0.0000000), wk =   0.0190476
        k(   98) = (   0.1166667   0.0000000   0.0000000), wk =   0.0190476
        k(   99) = (   0.1000000   0.0000000   0.0000000), wk =   0.0190476
        k(  100) = (   0.0833333   0.0000000   0.0000000), wk =   0.0190476
        k(  101) = (   0.0666667   0.0000000   0.0000000), wk =   0.0190476
        k(  102) = (   0.0500000   0.0000000   0.0000000), wk =   0.0190476
        k(  103) = (   0.0333333   0.0000000   0.0000000), wk =   0.0190476
        k(  104) = (   0.0166667   0.0000000   0.0000000), wk =   0.0190476
        k(  105) = (   0.0000000   0.0000000   0.0000000), wk =   0.0190476

                       cryst. coord.
        k(    1) = (   0.0000000   0.0000000   0.0000000), wk =   0.0190476
        k(    2) = (   0.0125000   0.0000000   0.0000000), wk =   0.0190476
        k(    3) = (   0.0250000   0.0000000   0.0000000), wk =   0.0190476
        k(    4) = (   0.0375000   0.0000000   0.0000000), wk =   0.0190476
        k(    5) = (   0.0500000   0.0000000   0.0000000), wk =   0.0190476
        k(    6) = (   0.0625000   0.0000000   0.0000000), wk =   0.0190476
        k(    7) = (   0.0750000   0.0000000   0.0000000), wk =   0.0190476
        k(    8) = (   0.0875000  -0.0000000   0.0000000), wk =   0.0190476
        k(    9) = (   0.1000000   0.0000000   0.0000000), wk =   0.0190476
        k(   10) = (   0.1125000  -0.0000000   0.0000000), wk =   0.0190476
        k(   11) = (   0.1250000   0.0000000   0.0000000), wk =   0.0190476
        k(   12) = (   0.1375000  -0.0000000   0.0000000), wk =   0.0190476
        k(   13) = (   0.1500000   0.0000000   0.0000000), wk =   0.0190476
        k(   14) = (   0.1625000   0.0000000   0.0000000), wk =   0.0190476
        k(   15) = (   0.1750000  -0.0000000   0.0000000), wk =   0.0190476
        k(   16) = (   0.1875000  -0.0000000   0.0000000), wk =   0.0190476
        k(   17) = (   0.2000000   0.0000000   0.0000000), wk =   0.0190476
        k(   18) = (   0.2125000  -0.0000000   0.0000000), wk =   0.0190476
        k(   19) = (   0.2250000  -0.0000000   0.0000000), wk =   0.0190476
        k(   20) = (   0.2375000  -0.0000000   0.0000000), wk =   0.0190476
        k(   21) = (   0.2500000   0.0000000   0.0000000), wk =   0.0190476
        k(   22) = (   0.2625000   0.0000000   0.0000000), wk =   0.0190476
        k(   23) = (   0.2750000  -0.0000000   0.0000000), wk =   0.0190476
        k(   24) = (   0.2875000   0.0000000   0.0000000), wk =   0.0190476
        k(   25) = (   0.3000000   0.0000000   0.0000000), wk =   0.0190476
        k(   26) = (   0.3125000   0.0000000   0.0000000), wk =   0.0190476
        k(   27) = (   0.3250000   0.0000000   0.0000000), wk =   0.0190476
        k(   28) = (   0.3375000   0.0000000   0.0000000), wk =   0.0190476
        k(   29) = (   0.3500000  -0.0000000   0.0000000), wk =   0.0190476
        k(   30) = (   0.3625000  -0.0000000   0.0000000), wk =   0.0190476
        k(   31) = (   0.3750000  -0.0000000   0.0000000), wk =   0.0190476
        k(   32) = (   0.3875000   0.0000000   0.0000000), wk =   0.0190476
        k(   33) = (   0.4000000   0.0000000   0.0000000), wk =   0.0190476
        k(   34) = (   0.4125000   0.0000000   0.0000000), wk =   0.0190476
        k(   35) = (   0.4250000  -0.0000000   0.0000000), wk =   0.0190476
        k(   36) = (   0.4375000   0.0000000   0.0000000), wk =   0.0190476
        k(   37) = (   0.4500000  -0.0000000   0.0000000), wk =   0.0190476
        k(   38) = (   0.4625000   0.0000000   0.0000000), wk =   0.0190476
        k(   39) = (   0.4750000  -0.0000000   0.0000000), wk =   0.0190476
        k(   40) = (   0.4875000   0.0000000   0.0000000), wk =   0.0190476
        k(   41) = (   0.5000000   0.0000000   0.0000000), wk =   0.0190476
        k(   42) = (   0.5069444  -0.0138889   0.0000000), wk =   0.0190476
        k(   43) = (   0.5138889  -0.0277778   0.0000000), wk =   0.0190476
        k(   44) = (   0.5208333  -0.0416667   0.0000000), wk =   0.0190476
        k(   45) = (   0.5277778  -0.0555556   0.0000000), wk =   0.0190476
        k(   46) = (   0.5347222  -0.0694444   0.0000000), wk =   0.0190476
        k(   47) = (   0.5416667  -0.0833333   0.0000000), wk =   0.0190476
        k(   48) = (   0.5486111  -0.0972222   0.0000000), wk =   0.0190476
        k(   49) = (   0.5555556  -0.1111111   0.0000000), wk =   0.0190476
        k(   50) = (   0.5625000  -0.1250000   0.0000000), wk =   0.0190476
        k(   51) = (   0.5694444  -0.1388889   0.0000000), wk =   0.0190476
        k(   52) = (   0.5763889  -0.1527778   0.0000000), wk =   0.0190476
        k(   53) = (   0.5833333  -0.1666667   0.0000000), wk =   0.0190476
        k(   54) = (   0.5902778  -0.1805556   0.0000000), wk =   0.0190476
        k(   55) = (   0.5972222  -0.1944444   0.0000000), wk =   0.0190476
        k(   56) = (   0.6041667  -0.2083333   0.0000000), wk =   0.0190476
        k(   57) = (   0.6111111  -0.2222222   0.0000000), wk =   0.0190476
        k(   58) = (   0.6180556  -0.2361111   0.0000000), wk =   0.0190476
        k(   59) = (   0.6250000  -0.2500000   0.0000000), wk =   0.0190476
        k(   60) = (   0.6319444  -0.2638889   0.0000000), wk =   0.0190476
        k(   61) = (   0.6388889  -0.2777778   0.0000000), wk =   0.0190476
        k(   62) = (   0.6458333  -0.2916667   0.0000000), wk =   0.0190476
        k(   63) = (   0.6527778  -0.3055556   0.0000000), wk =   0.0190476
        k(   64) = (   0.6597222  -0.3194444   0.0000000), wk =   0.0190476
        k(   65) = (   0.6666667  -0.3333333   0.0000000), wk =   0.0190476
        k(   66) = (   0.6500000  -0.3250000   0.0000000), wk =   0.0190476
        k(   67) = (   0.6333333  -0.3166667   0.0000000), wk =   0.0190476
        k(   68) = (   0.6166667  -0.3083333   0.0000000), wk =   0.0190476
        k(   69) = (   0.6000000  -0.3000000   0.0000000), wk =   0.0190476
        k(   70) = (   0.5833333  -0.2916667   0.0000000), wk =   0.0190476
        k(   71) = (   0.5666667  -0.2833333   0.0000000), wk =   0.0190476
        k(   72) = (   0.5500000  -0.2750000   0.0000000), wk =   0.0190476
        k(   73) = (   0.5333333  -0.2666667   0.0000000), wk =   0.0190476
        k(   74) = (   0.5166667  -0.2583333   0.0000000), wk =   0.0190476
        k(   75) = (   0.5000000  -0.2500000   0.0000000), wk =   0.0190476
        k(   76) = (   0.4833333  -0.2416667   0.0000000), wk =   0.0190476
        k(   77) = (   0.4666667  -0.2333333   0.0000000), wk =   0.0190476
        k(   78) = (   0.4500000  -0.2250000   0.0000000), wk =   0.0190476
        k(   79) = (   0.4333333  -0.2166667   0.0000000), wk =   0.0190476
        k(   80) = (   0.4166667  -0.2083333   0.0000000), wk =   0.0190476
        k(   81) = (   0.4000000  -0.2000000   0.0000000), wk =   0.0190476
        k(   82) = (   0.3833333  -0.1916667   0.0000000), wk =   0.0190476
        k(   83) = (   0.3666667  -0.1833333   0.0000000), wk =   0.0190476
        k(   84) = (   0.3500000  -0.1750000   0.0000000), wk =   0.0190476
        k(   85) = (   0.3333333  -0.1666667   0.0000000), wk =   0.0190476
        k(   86) = (   0.3166667  -0.1583333   0.0000000), wk =   0.0190476
        k(   87) = (   0.3000000  -0.1500000   0.0000000), wk =   0.0190476
        k(   88) = (   0.2833333  -0.1416667   0.0000000), wk =   0.0190476
        k(   89) = (   0.2666667  -0.1333333   0.0000000), wk =   0.0190476
        k(   90) = (   0.2500000  -0.1250000   0.0000000), wk =   0.0190476
        k(   91) = (   0.2333333  -0.1166667   0.0000000), wk =   0.0190476
        k(   92) = (   0.2166667  -0.1083333   0.0000000), wk =   0.0190476
        k(   93) = (   0.2000000  -0.1000000   0.0000000), wk =   0.0190476
        k(   94) = (   0.1833333  -0.0916667   0.0000000), wk =   0.0190476
        k(   95) = (   0.1666667  -0.0833333   0.0000000), wk =   0.0190476
        k(   96) = (   0.1500000  -0.0750000   0.0000000), wk =   0.0190476
        k(   97) = (   0.1333333  -0.0666667   0.0000000), wk =   0.0190476
        k(   98) = (   0.1166667  -0.0583333   0.0000000), wk =   0.0190476
        k(   99) = (   0.1000000  -0.0500000   0.0000000), wk =   0.0190476
        k(  100) = (   0.0833333  -0.0416667   0.0000000), wk =   0.0190476
        k(  101) = (   0.0666667  -0.0333333   0.0000000), wk =   0.0190476
        k(  102) = (   0.0500000  -0.0250000   0.0000000), wk =   0.0190476
        k(  103) = (   0.0333333  -0.0166667   0.0000000), wk =   0.0190476
        k(  104) = (   0.0166667  -0.0083333   0.0000000), wk =   0.0190476
        k(  105) = (   0.0000000   0.0000000   0.0000000), wk =   0.0190476

     Dense  grid:    94757 G-vectors     FFT dimensions: (  36,  36, 200)

     Smooth grid:    51479 G-vectors     FFT dimensions: (  27,  27, 162)

     Dynamical RAM for                 wfc:       0.69 MB

     Dynamical RAM for     wfc (w. buffer):       0.69 MB

     Dynamical RAM for           str. fact:       0.36 MB

     Dynamical RAM for           local pot:       0.00 MB

     Dynamical RAM for          nlocal pot:       0.39 MB

     Dynamical RAM for                qrad:       0.50 MB

     Dynamical RAM for          rho,v,vnew:       2.57 MB

     Dynamical RAM for           G-vectors:       1.45 MB

     Dynamical RAM for          h,s,v(r/c):       0.04 MB

     Dynamical RAM for          <psi|beta>:       0.01 MB

     Dynamical RAM for                 psi:       1.38 MB

     Dynamical RAM for                hpsi:       1.38 MB

     Dynamical RAM for                spsi:       1.38 MB

     Dynamical RAM for      wfcinit/wfcrot:       1.40 MB

     Dynamical RAM for           addusdens:       2.63 MB

     Estimated static dynamical RAM per process >       9.16 MB

     Estimated max dynamical RAM per process >      13.34 MB

     Estimated total dynamical RAM >     373.44 MB
 ----2D----2D----2D----2D----2D----2D----2D----2D----2D----2D----2D----2D
  The code is running with the 2D cutoff
  Please refer to:
  Sohier, T., Calandra, M., & Mauri, F. (2017), 
  Density functional perturbation theory for gated two-dimensional heterostructu
 res:
  Theoretical developments and application to flexural phonons in graphene.
  Physical Review B, 96(7), 75448. https://doi.org/10.1103/PhysRevB.96.075448
 ----2D----2D----2D----2D----2D----2D----2D----2D----2D----2D----2D----2D

     Check: negative core charge=   -0.000001

     The potential is recalculated from file :
     ./graphene.save/charge-density


     negative rho (up, down):  7.892E-05 0.000E+00
     Starting wfcs are    8 randomized atomic wfcs +   20 random wfcs
     Checking if some PAW data can be deallocated... 

     Band Structure Calculation
     Davidson diagonalization with overlap

     Computing kpt #:     1  of    15 on this pool
     total cpu time spent up to now is        7.7 secs

     Computing kpt #:     2  of    15 on this pool
     total cpu time spent up to now is        9.8 secs

     Computing kpt #:     3  of    15 on this pool
     total cpu time spent up to now is       12.8 secs

     Computing kpt #:     4  of    15 on this pool
     total cpu time spent up to now is       14.3 secs

     Computing kpt #:     5  of    15 on this pool
     total cpu time spent up to now is       16.6 secs

     Computing kpt #:     6  of    15 on this pool
     total cpu time spent up to now is       19.4 secs

     Computing kpt #:     7  of    15 on this pool
     total cpu time spent up to now is       21.3 secs

     Computing kpt #:     8  of    15 on this pool
     total cpu time spent up to now is       25.4 secs

     Computing kpt #:     9  of    15 on this pool
     total cpu time spent up to now is       27.2 secs

     Computing kpt #:    10  of    15 on this pool
     total cpu time spent up to now is       28.6 secs

     Computing kpt #:    11  of    15 on this pool
     total cpu time spent up to now is       30.6 secs

     Computing kpt #:    12  of    15 on this pool
     total cpu time spent up to now is       32.0 secs

     Computing kpt #:    13  of    15 on this pool
     total cpu time spent up to now is       34.5 secs

     Computing kpt #:    14  of    15 on this pool
     total cpu time spent up to now is       36.6 secs

     Computing kpt #:    15  of    15 on this pool
     total cpu time spent up to now is       40.6 secs

     ethr =  1.00E-13,  avg # of iterations = 57.2

     total cpu time spent up to now is       40.6 secs

     End of band structure calculation

          k = 0.0000 0.0000 0.0000 (  6513 PWs)   bands (ev):

   -23.7625 -11.8587  -7.3006  -7.3006  -0.9701  -0.0905   1.6005   2.5202
     4.0720   4.0720   5.1175   6.8035   7.1576   8.2267   9.6870  12.3781
    15.2198  18.2271  19.0843  21.9829  23.9508  23.9508  25.8652  27.3376
    27.3376  29.9773  30.2088  30.9361

          k = 0.0125 0.0072 0.0000 (  6509 PWs)   bands (ev):

   -23.7588 -11.8543  -7.3160  -7.3087  -0.9651  -0.0855   1.6056   2.5252
     4.0742   4.0882   5.1227   6.8083   7.1446   8.2332   9.6921  12.3826
    15.2248  18.2393  19.0864  21.9877  23.9079  23.9159  25.7936  27.3895
    27.4116  30.0356  30.2129  30.5364

          k = 0.0250 0.0144 0.0000 (  6517 PWs)   bands (ev):

   -23.7478 -11.8411  -7.3620  -7.3330  -0.9501  -0.0703   1.6206   2.5402
     4.0806   4.1366   5.1384   6.8228   7.1058   8.2526   9.7072  12.3958
    15.2397  18.2757  19.0926  22.0022  23.7865  23.8051  25.6385  27.5377
    27.5788  29.8710  30.2094  30.2268

          k = 0.0375 0.0217 0.0000 (  6513 PWs)   bands (ev):

   -23.7293 -11.8190  -7.4379  -7.3730  -0.9251  -0.0451   1.6458   2.5652
     4.0905   4.2167   5.1643   6.8470   7.0414   8.2855   9.7323  12.4178
    15.2646  18.3357  19.1021  22.0264  23.6037  23.6079  25.4928  27.7573
    27.7645  29.1633  30.0074  30.2476

          k = 0.0500 0.0289 0.0000 (  6497 PWs)   bands (ev):

   -23.7035 -11.7882  -7.5427  -7.4279  -0.8901  -0.0097   1.6810   2.6003
     4.1026   4.3277   5.2006   6.8807   6.9522   8.3323   9.7676  12.4485
    15.2993  18.4183  19.1136  22.0603  23.3272  23.3784  25.4038  27.9039
    28.0502  28.4456  29.6471  29.9595

          k = 0.0625 0.0361 0.0000 (  6497 PWs)   bands (ev):

   -23.6704 -11.7485  -7.6748  -7.4966  -0.8451   0.0357   1.7263   2.6452
     4.1155   4.4685   5.2471   6.8382   6.9246   8.3937   9.8128  12.4878
    15.3439  18.5221  19.1248  22.1039  22.9846  23.1259  25.3759  27.7284
    28.0003  28.3774  29.2612  29.2936

          k = 0.0750 0.0433 0.0000 (  6501 PWs)   bands (ev):

   -23.6299 -11.7001  -7.8327  -7.5780  -0.7901   0.0913   1.7816   2.7002
     4.1276   4.6377   5.3038   6.7014   6.9776   8.4704   9.8681  12.5355
    15.3981  18.6454  19.1324  22.1575  22.6087  22.8574  25.3945  27.0164
    27.9956  28.6309  28.7307  28.9482

          k = 0.0875 0.0505 0.0000 (  6509 PWs)   bands (ev):

   -23.5820 -11.6430  -8.0143  -7.6707  -0.7251   0.1569   1.8471   2.7652
     4.1374   4.8341   5.3703   6.5421   7.0403   8.5627   9.9333  12.5915
    15.4621  18.7856  19.1315  22.2210  22.2244  22.5805  25.4422  26.3127
    27.6315  28.3410  28.6116  28.8620

          k = 0.1000 0.0577 0.0000 (  6501 PWs)   bands (ev):

   -23.5268 -11.5771  -8.2178  -7.7733  -0.6500   0.2326   1.9225   2.8400
     4.1435   5.0559   5.4468   6.3617   7.1126   8.6710  10.0084  12.6556
    15.5357  18.9398  19.1144  21.8527  22.2945  22.3003  25.5001  25.6194
    27.0030  28.1586  28.2842  28.3061

          k = 0.1125 0.0650 0.0000 (  6505 PWs)   bands (ev):

   -23.4643 -11.5026  -8.4410  -7.8844  -0.5650   0.3183   2.0081   2.9248
     4.1447   5.3016   5.5330   6.1614   7.1944   8.7952  10.0935  12.7274
    15.6188  19.0705  19.1041  21.5121  22.0203  22.3782  24.9388  25.5320
    26.3696  27.4566  27.9661  28.2856

          k = 0.1250 0.0722 0.0000 (  6501 PWs)   bands (ev):

   -23.3945 -11.4195  -8.6820  -8.0026  -0.4700   0.4141   2.1036   3.0195
     4.1403   5.5696   5.6290   5.9424   7.2857   8.9349  10.1885  12.8067
    15.7113  18.9866  19.2734  21.2208  21.7431  22.4719  24.2740  25.3683
    25.9241  26.7625  27.6575  28.1784

          k = 0.1375 0.0794 0.0000 (  6501 PWs)   bands (ev):

   -23.3174 -11.3278  -8.9387  -8.1265  -0.3650   0.5199   2.2092   3.1239
     4.1298   5.7062   5.7347   5.8583   7.3864   9.0893  10.2934  12.8930
    15.8132  18.8503  19.4407  20.9933  21.4703  22.5749  23.6302  24.8348
    25.8269  26.0790  27.3584  27.7375

          k = 0.1500 0.0866 0.0000 (  6495 PWs)   bands (ev):

   -23.2331 -11.2276  -9.2094  -8.2547  -0.2500   0.6357   2.3248   3.2381
     4.1131   5.4541   5.8500   6.1661   7.4965   9.2573  10.4081  12.9857
    15.9244  18.6566  19.5949  20.8345  21.2032  22.6771  23.0243  24.2094
    25.4083  25.7642  27.0690  27.2274

          k = 0.1625 0.0938 0.0000 (  6493 PWs)   bands (ev):

   -23.1414 -11.1190  -9.4921  -8.3860  -0.1250   0.7614   2.4503   3.3617
     4.0905   5.1877   5.9751   6.4915   7.6160   9.4374  10.5326  13.0841
    16.0447  18.4120  19.7181  20.7354  20.9426  22.4069  22.8414  23.5827
    24.7535  25.5823  26.7892  26.8244

          k = 0.1750 0.1010 0.0000 (  6481 PWs)   bands (ev):

   -23.0426 -11.0021  -9.7853  -8.5194   0.0099   0.8970   2.5857   3.4944
     4.0624   4.9088   6.1098   6.8331   7.7446   9.6279  10.6670  13.1874
    16.1741  18.1310  19.7774  20.6752  20.6894  21.9017  22.9681  22.9754
    24.1201  25.2268  26.5192  26.5715

          k = 0.1875 0.1083 0.0000 (  6473 PWs)   bands (ev):

   -22.9366 -10.8770 -10.0874  -8.6537   0.1548   1.0424   2.7308   3.6350
     4.0295   4.6198   6.2544   7.1894   7.8823   9.8268  10.8111  13.2942
    16.3124  17.8286  19.7181  20.4440  20.6233  21.4986  22.4054  23.0978
    23.5292  24.7542  26.2588  26.4053

          k = 0.2000 0.1155 0.0000 (  6477 PWs)   bands (ev):

   -22.8234 -10.7437 -10.3970  -8.7880   0.3097   1.1976   2.8855   3.7780
     3.9927   4.3276   6.4087   7.5590   8.0290  10.0319  10.9650  13.4028
    16.4593  17.5171  19.4888  20.2069  20.5329  21.2354  21.9056  22.8951
    23.3256  24.2404  26.0082  26.2097

          k = 0.2125 0.1227 0.0000 (  6469 PWs)   bands (ev):

   -22.7032 -10.7129 -10.6023  -8.9215   0.4744   1.3621   3.0491   3.8630
     3.9532   4.0940   6.5728   7.9406   8.1846  10.2409  11.1286  13.5110
    16.6146  17.2054  19.1068  19.9783  20.3319  21.0548  21.5329  22.4247
    23.4790  23.7300  25.6328  25.7673

          k = 0.2250 0.1299 0.0000 (  6459 PWs)   bands (ev):

   -22.5758 -11.0338 -10.4532  -9.0533   0.6491   1.5357   3.2207   3.6425
     3.9128   4.1683   6.7466   8.3328   8.3488  10.4509  11.3017  13.6152
    16.7776  16.9003  18.6385  19.7585  19.9785  20.8191  21.3087  22.0846
    23.2542  23.6537  25.0734  25.5361

          k = 0.2375 0.1371 0.0000 (  6467 PWs)   bands (ev):

   -22.4413 -11.3586 -10.2963  -9.1828   0.8336   1.7172   3.3299   3.3971
     3.8756   4.3390   6.9303   8.5215   8.7344  10.6587  11.4842  13.7106
    16.6075  16.9469  18.1354  19.5240  19.5478  20.4433  21.1501  21.9160
    22.8493  23.8180  24.5595  25.3146

          k = 0.2500 0.1443 0.0000 (  6453 PWs)   bands (ev):

   -22.2999 -11.6864 -10.1320  -9.3094   1.0279   1.9038   3.0075   3.5645
     3.8557   4.5282   7.1238   8.7024   9.1439  10.8606  11.6760  13.7902
    16.3324  17.1139  17.6324  19.0325  19.3463  19.9675  20.9519  21.8422
    22.5579  23.8204  24.2523  25.1028

          k = 0.2625 0.1516 0.0000 (  6442 PWs)   bands (ev):

   -22.1515 -12.0162  -9.9603  -9.4325   1.2320   2.0820   2.6962   3.6624
     3.9145   4.7293   7.3269   8.8911   9.5600  11.0519  11.8767  13.8440
    16.0813  17.0538  17.3677  18.5385  19.1540  19.4515  20.6618  21.7691
    22.3985  23.4821  24.3499  24.9006

          k = 0.2750 0.1588 0.0000 (  6434 PWs)   bands (ev):

   -21.9962 -12.3473  -9.7817  -9.5515   1.4458   2.1425   2.5079   3.6587
     4.0848   4.9409   7.5399   9.0872   9.9811  11.2264  12.0861  13.8587
    15.8608  16.5854  17.5302  18.0598  18.9269  18.9712  20.2944  21.6250
    22.3367  23.1525  24.5322  24.6186

          k = 0.2875 0.1660 0.0000 (  6418 PWs)   bands (ev):

   -21.8341 -12.6789  -9.6662  -9.5963   1.6693   1.8994   2.6301   3.6233
     4.2973   5.1625   7.7625   9.2903  10.4059  11.3763  12.3039  13.8200
    15.6748  16.1131  17.6100  17.7165  18.4146  18.7980  19.8895  21.3680
    22.3130  22.9326  24.2847  24.5249

          k = 0.3000 0.1732 0.0000 (  6430 PWs)   bands (ev):

   -21.6653 -13.0103  -9.7759  -9.4046   1.5722   1.9022   2.8446   3.5809
     4.5278   5.3938   7.9947   9.4995  10.8325  11.4909  12.5298  13.7174
    15.5177  15.6663  17.2033  17.7844  18.0421  18.6344  19.4791  21.0107
    22.2680  22.8109  24.0044  24.3514

          k = 0.3125 0.1804 0.0000 (  6432 PWs)   bands (ev):

   -21.4897 -13.3409  -9.8805  -9.2071   1.2315   2.1443   3.0820   3.5374
     4.7711   5.6346   8.2365   9.7138  11.2592  11.5571  12.7637  13.5497
    15.2546  15.3682  16.8571  17.3699  18.1776  18.4804  19.0850  20.5974
    22.1484  22.7412  23.8230  24.1873

          k = 0.3250 0.1876 0.0000 (  6440 PWs)   bands (ev):

   -21.3077 -13.6700  -9.9795  -9.0041   0.8879   2.3951   3.3331   3.4952
     5.0256   5.8848   8.4879   9.9318  11.5600  11.6840  13.0053  13.3248
    14.8839  15.1938  16.5864  16.9174  18.3362  18.3812  18.7252  20.1651
    21.9299  22.6846  23.7617  24.0325

          k = 0.3375 0.1949 0.0000 (  6430 PWs)   bands (ev):

   -21.1191 -13.9971 -10.0728  -8.7965   0.5450   2.6532   3.4565   3.5955
     5.2908   6.1441   8.7486  10.1511  11.4869  12.1046  13.0551  13.2540
    14.5539  14.9721  16.3888  16.4994  18.2018  18.4172  18.5828  19.7419
    21.6335  22.6146  23.7987  23.8871

          k = 0.3500 0.2021 0.0000 (  6428 PWs)   bands (ev):

   -20.9243 -14.3217 -10.1600  -8.5849   0.2051   2.9145   3.4263   3.8684
     5.5663   6.4124   9.0186  10.3679  11.3325  12.5187  12.7536  13.5080
    14.2536  14.7055  16.1339  16.2347  18.0772  18.1780  18.7409  19.3761
    21.2973  22.5100  23.7510  23.8954

          k = 0.3625 0.2093 0.0000 (  6420 PWs)   bands (ev):

   -20.7233 -14.6432 -10.2409  -8.3704  -0.1299   3.1547   3.4288   4.1514
     5.8519   6.6895   9.2977  10.5744  11.1025  12.4349  12.9233  13.7479
    13.9779  14.4104  15.8339  16.0870  17.9625  18.0182  18.6785  19.2512
    20.9518  22.3528  23.6241  23.8564

          k = 0.3750 0.2165 0.0000 (  6428 PWs)   bands (ev):

   -20.5164 -14.9611 -10.3154  -8.1543  -0.4580   3.2620   3.5765   4.4440
     6.1475   6.9751   9.5855  10.7532  10.8112  12.1210  13.3154  13.6080
    14.0680  14.1013  15.6007  15.9248  17.8576  17.9324  18.3816  19.3868
    20.6200  22.1352  23.5064  23.6388

          k = 0.3875 0.2237 0.0000 (  6442 PWs)   bands (ev):

   -20.3039 -15.2748 -10.3832  -7.9382  -0.7771   3.2585   3.8472   4.7462
     6.4529   7.2687   9.8808  10.4764  10.8578  11.8599  13.2650  13.6914
    13.7876  14.3343  15.4181  15.7481  17.7627  17.8976  18.0659  19.5714
    20.3222  21.8698  23.3979  23.4890

          k = 0.4000 0.2309 0.0000 (  6436 PWs)   bands (ev):

   -20.0862 -15.5836 -10.4443  -7.7241  -1.0845   3.2369   4.1484   5.0577
     6.7681   7.5699  10.0835  10.2129  10.7965  11.7409  12.8874  13.4779
    14.0474  14.6053  15.2596  15.5681  17.6777  17.7906  17.8794  19.7451
    20.0807  21.5867  23.2989  23.3928

          k = 0.4125 0.2382 0.0000 (  6438 PWs)   bands (ev):

   -19.8639 -15.8868 -10.4985  -7.5147  -1.3771   3.2134   4.4640   5.3783
     7.0929   7.8776   9.7172  10.5082  10.5518  11.7700  12.4890  13.1869
    14.3791  14.8382  15.1298  15.3965  17.5744  17.6027  17.8425  19.8745
    19.9184  21.3270  23.2094  23.3366

          k = 0.4250 0.2454 0.0000 (  6436 PWs)   bands (ev):

   -19.6380 -16.1833 -10.5456  -7.3136  -1.6510   3.1915   4.7906   5.7078
     7.4272   8.1904   9.3228  10.2171  10.8291  11.8234  12.0792  12.9473
    14.6815  14.7887  15.2413  15.2486  17.4217  17.5376  17.7629  19.8505
    19.9160  21.1429  23.1299  23.3126

          k = 0.4375 0.2526 0.0000 (  6434 PWs)   bands (ev):

   -19.4098 -16.4713 -10.5857  -7.1252  -1.9016   3.1721   5.1269   6.0457
     7.7705   8.5038   8.9229   9.8535  11.1575  11.6653  11.7845  12.8175
    14.5511  14.9497  15.1073  15.5120  17.3242  17.4826  17.6389  19.8353
    19.8733  21.0744  23.0608  23.2141

          k = 0.4500 0.2598 0.0000 (  6432 PWs)   bands (ev):

   -19.1822 -16.7481 -10.6186  -6.9553  -2.1227   3.1559   5.4725   6.3917
     8.1208   8.5242   8.7994   9.4997  11.2433  11.5009  11.6064  12.8209
    14.2613  14.9964  15.1786  15.7834  17.2646  17.4375  17.4889  19.6598
    19.9646  21.0991  22.9276  23.0027

          k = 0.4625 0.2670 0.0000 (  6430 PWs)   bands (ev):

   -18.9605 -17.0082 -10.6442  -6.8107  -2.3073   3.1431   5.8266   6.7450
     8.1151   8.4924   8.9040   9.3360  10.8335  11.3373  11.8409  12.8976
    13.9413  14.9096  15.3630  16.0420  17.2230  17.3387  17.4025  19.4534
    20.0946  21.1607  22.6611  22.9564

          k = 0.4750 0.2742 0.0000 (  6426 PWs)   bands (ev):

   -18.7560 -17.2401 -10.6625  -6.6992  -2.4474   3.1338   6.1885   7.1041
     7.7228   8.6113   8.8602   9.5682  10.4256  11.0335  12.1887  12.9854
    13.6031  14.8472  15.4985  16.2705  17.1838  17.2121  17.3774  19.2676
    20.2309  21.2208  22.4348  22.9226

          k = 0.4875 0.2815 0.0000 (  6416 PWs)   bands (ev):

   -18.5956 -17.4170 -10.6736  -6.6285  -2.5354   3.1282   6.5559   7.3354
     7.4639   8.2509   9.2390   9.8535  10.0236  10.7390  12.5396  13.0496
    13.2556  14.8095  15.5814  16.4410  17.1279  17.1436  17.3624  19.1390
    20.3378  21.2614  22.2766  22.9019

          k = 0.5000 0.2887 0.0000 (  6414 PWs)   bands (ev):

   -18.5300 -17.4881 -10.6772  -6.6042  -2.5655   3.1264   6.8654   7.0192
     7.7373   7.9752   9.6032   9.6517  10.0159  10.5748  12.8473  12.9486
    13.0729  14.7968  15.6093  16.5082  17.0983  17.1232  17.3574  19.0930
    20.3791  21.2755  22.2185  22.8950

          k = 0.5069 0.2766 0.0000 (  6416 PWs)   bands (ev):

   -18.5271 -17.4852 -10.6927  -6.6000  -2.5664   3.1472   6.8694   7.0234
     7.7373   7.9799   9.6073   9.6561  10.0131  10.5794  12.8484  12.9523
    13.0569  14.8014  15.5825  16.5391  16.9412  17.1243  17.5420  19.0983
    20.3836  21.2597  22.2266  22.5790

          k = 0.5139 0.2646 0.0000 (  6434 PWs)   bands (ev):

   -18.5183 -17.4765 -10.7387  -6.5876  -2.5694   3.2095   6.8814   7.0362
     7.7369   7.9940   9.6196   9.6693  10.0047  10.5935  12.8517  12.9632
    13.0104  14.8151  15.5117  16.6223  16.7314  17.1275  17.8318  19.1143
    20.3968  21.2040  22.0444  22.2461

          k = 0.5208 0.2526 0.0000 (  6438 PWs)   bands (ev):

   -18.5037 -17.4620 -10.8144  -6.5667  -2.5745   3.3121   6.9014   7.0576
     7.7356   8.0174   9.6401   9.6912   9.9903  10.6168  12.8566  12.9379
    12.9814  14.8381  15.4153  16.5493  16.7401  17.1324  18.1383  19.1408
    20.4189  21.0530  21.5470  22.2461

          k = 0.5278 0.2406 0.0000 (  6430 PWs)   bands (ev):

   -18.4832 -17.4419 -10.9183  -6.5376  -2.5820   3.4536   6.9293   7.0873
     7.7320   8.0503   9.6687   9.7218   9.9697  10.6496  12.8465  12.8624
    13.0067  14.8701  15.3082  16.4019  16.8786  17.1383  18.4406  19.1775
    20.4498  20.6547  21.2695  22.0683

          k = 0.5347 0.2285 0.0000 (  6432 PWs)   bands (ev):

   -18.4569 -17.4160 -11.0484  -6.5002  -2.5923   3.6317   6.9650   7.1256
     7.7245   8.0926   9.7053   9.7611   9.9430  10.6916  12.7452  12.8683
    13.0388  14.9114  15.1998  16.2884  17.0293  17.1441  18.7180  19.2241
    20.1048  20.4896  21.1237  21.6228

          k = 0.5417 0.2165 0.0000 (  6440 PWs)   bands (ev):

   -18.4247 -17.3847 -11.2026  -6.4545  -2.6059   3.8441   7.0085   7.1722
     7.7108   8.1442   9.7497   9.8091   9.9109  10.7430  12.6434  12.8727
    13.0777  14.9618  15.0967  16.2052  17.1480  17.1877  18.9415  19.2800
    19.5276  20.5381  20.9869  21.1265

          k = 0.5486 0.2045 0.0000 (  6436 PWs)   bands (ev):

   -18.3866 -17.3479 -11.3783  -6.4005  -2.6232   4.0879   7.0597   7.2271
     7.6881   8.2052   9.8019   9.8656   9.8753  10.8038  12.5501  12.8743
    13.1228  15.0035  15.0213  16.1472  17.1476  17.3511  18.9499  19.0626
    19.3446  20.5954  20.6815  20.8276

          k = 0.5556 0.1925 0.0000 (  6432 PWs)   bands (ev):

   -18.3428 -17.3058 -11.5729  -6.3382  -2.6450   4.3602   7.1184   7.2903
     7.6536   8.2756   9.8396   9.8616   9.9306  10.8739  12.4724  12.8712
    13.1738  14.9243  15.0899  16.1083  17.1384  17.5179  18.3810  19.0076
    19.4171  20.3581  20.6082  20.6614

          k = 0.5625 0.1804 0.0000 (  6428 PWs)   bands (ev):

   -18.2931 -17.2587 -11.7840  -6.2677  -2.6721   4.6579   7.1843   7.3616
     7.6044   8.3553   9.8084   9.9285  10.0039  10.9533  12.4150  12.8618
    13.2301  14.8624  15.1677  16.0815  17.1087  17.6873  17.8328  18.7451
    19.4965  20.1702  20.2449  20.7361

          k = 0.5694 0.1684 0.0000 (  6428 PWs)   bands (ev):

   -18.2375 -17.2069 -12.0087  -6.1890  -2.7052   4.9777   7.2573   7.4409
     7.5387   8.4444   9.7869  10.0022  10.0854  11.0420  12.3804  12.8450
    13.2910  14.8205  15.2546  16.0574  16.9929  17.3694  17.8589  18.3549
    19.5816  19.7521  20.0163  20.5951

          k = 0.5764 0.1564 0.0000 (  6428 PWs)   bands (ev):

   -18.1761 -17.1506 -12.2447  -6.1021  -2.7452   5.3165   7.3371   7.4559
     7.5281   8.5429   9.7799  10.0822  10.1750  11.1400  12.3686  12.8201
    13.3554  14.8005  15.3505  16.0223  16.6020  17.1777  17.9272  18.0326
    19.2215  19.6711  19.7988  20.4331

          k = 0.5833 0.1443 0.0000 (  6432 PWs)   bands (ev):

   -18.1089 -17.0904 -12.4895  -6.0070  -2.7931   5.6708   7.3575   7.4234
     7.6230   8.6508   9.7909  10.1680  10.2725  11.2474  12.3784  12.7878
    13.4220  14.8034  15.4555  15.9529  16.0926  17.0989  17.5191  18.2086
    18.6885  19.4959  19.7635  20.2992

          k = 0.5903 0.1323 0.0000 (  6436 PWs)   bands (ev):

   -18.0359 -17.0269 -12.7405  -5.9037  -2.8499   6.0368   7.2466   7.5155
     7.7257   8.7679   9.8217  10.2587  10.3774  11.3640  12.4075  12.7496
    13.4891  14.8293  15.5695  15.5747  15.8137  17.0193  17.1764  18.1666
    18.3870  19.1356  19.8572  20.1872

          k = 0.5972 0.1203 0.0000 (  6444 PWs)   bands (ev):

   -17.9571 -16.9610 -12.9952  -5.7924  -2.9165   6.4103   7.1277   7.6132
     7.8359   8.8945   9.8726  10.3533  10.4897  11.4899  12.4527  12.7083
    13.5538  14.8772  15.0655  15.5724  15.6925  16.9128  16.9292  17.6715
    18.5682  18.7567  19.9503  20.0899

          k = 0.6042 0.1083 0.0000 (  6440 PWs)   bands (ev):

   -17.8725 -16.8937 -13.2511  -5.6731  -2.9938   6.7862   7.0058   7.7155
     7.9542   9.0303   9.9426  10.4507  10.6087  11.6251  12.5099  12.6674
    13.6104  14.5733  14.9458  15.2368  15.8245  16.7353  16.7580  17.2491
    18.3955  18.7527  19.9829  20.0411

          k = 0.6111 0.0962 0.0000 (  6440 PWs)   bands (ev):

   -17.7820 -16.8269 -13.5050  -5.5457  -3.0825   6.8857   7.1580   7.8218
     8.0813   9.1755  10.0301  10.5491  10.7339  11.7696  12.5734  12.6312
    13.6380  14.1192  14.8479  15.0336  15.9655  16.4065  16.6004  16.9854
    18.0902  18.9410  19.7913  20.1277

          k = 0.6181 0.0842 0.0000 (  6442 PWs)   bands (ev):

   -17.6858 -16.7628 -13.7535  -5.4103  -3.1834   6.7719   7.5158   7.9309
     8.2200   9.3300  10.1333  10.6467  10.8645  11.9233  12.6042  12.6333
    13.4884  13.8515  14.4455  15.1388  15.9735  16.1153  16.3956  16.8415
    17.8761  19.1334  19.4526  20.2082

          k = 0.6250 0.0722 0.0000 (  6442 PWs)   bands (ev):

   -17.5839 -16.7048 -13.9922  -5.2671  -3.2970   6.6682   7.8442   8.0415
     8.3765   9.4937  10.2499  10.7416  10.9992  12.0862  12.5913  12.6702
    13.1005  13.8315  14.0650  15.2601  15.5208  16.1190  16.2740  16.7431
    17.7626  19.0386  19.3304  20.2806

          k = 0.6319 0.0601 0.0000 (  6438 PWs)   bands (ev):

   -17.4761 -16.6577 -14.2153  -5.1159  -3.4235   6.5776   8.1204   8.1521
     8.5612   9.6668  10.3772  10.8320  11.1355  12.2583  12.5975  12.6427
    12.6960  13.7547  13.8379  15.0816  15.3960  15.7876  16.4414  16.6708
    17.7240  18.6114  19.5322  20.2372

          k = 0.6389 0.0481 0.0000 (  6436 PWs)   bands (ev):

   -17.3626 -16.6283 -14.4154  -4.9570  -3.5630   6.5021   8.2606   8.3294
     8.7723   9.8491  10.5111  10.9165  11.2671  12.3260  12.4396  12.4934
    12.6268  13.5734  13.8164  14.6826  15.4326  15.5456  16.6176  16.6197
    17.7226  18.1965  19.7391  19.9234

          k = 0.6458 0.0361 0.0000 (  6440 PWs)   bands (ev):

   -17.2434 -16.6252 -14.5830  -4.7904  -3.7154   6.4432   8.3649   8.4812
     8.9762  10.0406  10.6441  10.9953  11.3751  12.0256  12.2250  12.6301
    12.6824  13.5152  13.7180  14.3772  15.0849  15.7078  16.5821  16.8025
    17.7225  17.8130  19.6353  19.9505

          k = 0.6528 0.0241 0.0000 (  6434 PWs)   bands (ev):

   -17.1185 -16.6579 -14.7082  -4.6161  -3.8803   6.4016   8.4621   8.5879
     9.1313  10.2414  10.7577  11.0704  11.4010  11.8650  11.9136  12.7657
    12.8297  13.4969  13.4974  14.2236  14.7813  15.8818  16.5361  16.9959
    17.4905  17.6883  19.4038  20.1633

          k = 0.6597 0.0120 0.0000 (  6426 PWs)   bands (ev):

   -16.9879 -16.7330 -14.7837  -4.4342  -4.0570   6.3773   8.5496   8.6438
     9.2135  10.4514  10.7988  11.1453  11.3185  11.6541  11.8685  12.8766
    13.0384  13.2248  13.4288  14.1770  14.5757  16.0669  16.4376  17.1979
    17.2803  17.5875  19.2595  20.3516

          k = 0.6667 0.0000 0.0000 (  6426 PWs)   bands (ev):

   -16.8517 -16.8517 -14.8081  -4.2448  -4.2448   6.3695   8.6243   8.6243
     9.2329  10.6705  10.6705  11.2252  11.2252  11.5596  11.8970  13.0132
    13.0132  13.2561  13.2561  14.1700  14.5096  16.2624  16.2624  17.2160
    17.4082  17.4082  19.2139  20.4078

          k = 0.6500 0.0000 0.0000 (  6440 PWs)   bands (ev):

   -17.0438 -16.6807 -14.7770  -4.4836  -4.0078   6.3797   8.4677   8.6936
     9.2234  10.3211  10.9455  11.1169  11.3347  11.6348  11.8444  12.9476
    12.9517  13.2078  13.5294  14.1662  14.5750  16.0259  16.5096  17.1154
    17.2779  17.6715  19.2650  20.3230

          k = 0.6333 0.0000 0.0000 (  6441 PWs)   bands (ev):

   -17.2758 -16.5017 -14.6940  -4.7351  -3.7604   6.4073   8.1834   8.7378
     9.2022   9.9035  10.9170  11.2337  11.4664  11.7286  11.7857  12.6645
    13.0467  13.4316  13.8155  14.1327  14.7123  15.8671  16.7694  16.7883
    17.4159  17.9464  19.3858  19.9325

          k = 0.6167 0.0000 0.0000 (  6437 PWs)   bands (ev):

   -17.5335 -16.3147 -14.5728  -4.9976  -3.5026   6.4453   7.8241   8.7560
     9.1542   9.4813  10.5893  11.5348  11.6254  11.6517  11.8307  12.5695
    13.1569  13.6807  14.0831  14.1144  14.8553  15.8396  16.4811  17.0396
    17.5855  18.2327  19.5353  19.5786

          k = 0.6000 0.0000 0.0000 (  6449 PWs)   bands (ev):

   -17.8062 -16.1197 -14.4238  -5.2689  -3.2348   6.4830   7.4281   8.7493
     9.0662   9.0787  10.1939  11.3677  11.8136  11.8489  11.9588  12.7044
    13.1247  13.9514  14.1273  14.4261  14.9357  15.9205  16.2630  17.3175
    17.7529  18.5299  19.3074  19.6761

          k = 0.5833 0.0000 0.0000 (  6441 PWs)   bands (ev):

   -18.0868 -15.9168 -14.2538  -5.5472  -2.9571   6.5038   7.0163   8.7137
     8.7202   8.9352   9.7765  11.0101  12.0304  12.1317  12.1758  12.9215
    12.9356  14.2412  14.3172  14.7503  14.8784  16.0397  16.2150  17.5977
    17.8849  18.8378  19.1727  19.7618

          k = 0.5667 0.0000 0.0000 (  6445 PWs)   bands (ev):

   -18.3706 -15.7062 -14.0675  -5.8306  -2.6699   6.4835   6.5999   8.4061
     8.6723   8.7627   9.3594  10.6466  12.2728  12.2737  12.5155  12.6944
    13.1894  14.5473  14.5895  14.6945  15.0870  16.1170  16.3390  17.8697
    17.9814  19.1556  19.2078  19.7408

          k = 0.5500 0.0000 0.0000 (  6431 PWs)   bands (ev):

   -18.6543 -15.4878 -13.8680  -6.1173  -2.3734   6.1851   6.3944   8.1738
     8.5479   8.6092   8.9592  10.3050  12.1100  12.5404  12.7656  12.8677
    13.4080  14.4941  14.8674  14.8978  15.4359  16.0924  16.5631  18.1036
    18.1105  19.3771  19.4829  19.5999

          k = 0.5333 0.0000 0.0000 (  6433 PWs)   bands (ev):

   -18.9358 -15.2619 -13.6574  -6.4056  -2.0680   5.7757   6.2216   8.0157
     8.2794   8.5340   8.5988  10.0068  11.7683  12.8269  13.0297  13.2324
    13.4778  14.4350  15.1981  15.2128  15.7968  15.9678  16.8326  18.2740
    18.2968  19.3820  19.6132  19.6239

          k = 0.5167 0.0000 0.0000 (  6449 PWs)   bands (ev):

   -19.2136 -15.0284 -13.4374  -6.6940  -1.7539   5.3740   5.9756   7.8977
     7.9486   8.2954   8.4495   9.7761  11.3989  13.1289  13.3311  13.3427
    13.6092  14.6059  15.4331  15.5347  15.8715  16.1694  17.1140  18.3038
    18.5474  19.1429  19.6982  19.8627

          k = 0.5000 0.0000 0.0000 (  6451 PWs)   bands (ev):

   -19.4864 -14.7877 -13.2092  -6.9812  -1.4316   4.9814   5.6814   7.5824
     7.7689   8.0287   8.3580   9.6363  11.0263  13.0791  13.4411  13.6823
    13.9980  14.9061  15.3061  15.8685  16.0912  16.5535  17.3706  18.2065
    18.8172  18.9374  19.9132  20.0867

          k = 0.4833 0.0000 0.0000 (  6447 PWs)   bands (ev):

   -19.7534 -14.5397 -12.9739  -7.2659  -1.1015   4.5991   5.3616   7.2087
     7.5942   7.7757   8.2612   9.5948  10.6575  12.8068  13.7558  14.0389
    14.3984  15.0328  15.2573  16.1814  16.4522  16.9486  17.5383  18.0569
    18.8414  19.0605  20.2208  20.2670

          k = 0.4667 0.0000 0.0000 (  6465 PWs)   bands (ev):

   -20.0139 -14.2848 -12.7323  -7.5471  -0.7640   4.2278   5.0310   6.8393
     7.3693   7.5287   8.1603   9.6325  10.2960  12.5496  14.0600  14.3809
    14.7625  14.8101  15.6287  16.4354  16.8468  17.3541  17.5498  17.9464
    18.9328  19.2201  20.4306  20.5818

          k = 0.4500 0.0000 0.0000 (  6461 PWs)   bands (ev):

   -20.2675 -14.0231 -12.4854  -7.8238  -0.4198   3.8680   4.6985   6.4786
     7.1084   7.2860   8.0565   9.7126   9.9437  12.3306  14.3301  14.3419
    14.8824  15.2325  15.9967  16.5765  17.2585  17.4433  17.7696  17.9736
    19.1908  19.2491  20.6362  20.9766

          k = 0.4333 0.0000 0.0000 (  6449 PWs)   bands (ev):

   -20.5137 -13.7548 -12.2338  -8.0950  -0.0693   3.5201   4.3692   6.1285
     6.8275   7.0481   7.9502   9.6017   9.7936  12.1731  14.0466  14.5232
    15.2743  15.6650  16.3101  16.6174  17.3425  17.6809  18.1801  18.1941
    19.1587  19.5403  20.9026  21.3963

          k = 0.4167 0.0000 0.0000 (  6445 PWs)   bands (ev):

   -20.7521 -13.4802 -11.9785  -8.3601   0.2868   3.1844   4.0465   5.7901
     6.5383   6.8159   7.8419   9.2707   9.8367  12.1018  13.7395  14.5801
    15.6963  16.1068  16.4466  16.6763  17.4138  18.1032  18.5138  18.6269
    19.0030  19.9361  21.2053  21.8362

          k = 0.4000 0.0000 0.0000 (  6457 PWs)   bands (ev):

   -20.9825 -13.1996 -11.7201  -8.6184   0.6477   2.8610   3.7323   5.4638
     6.2481   6.5902   7.7319   8.9513   9.8150  12.1328  13.4366  14.4671
    16.1330  16.3674  16.5569  16.8486  17.7162  18.4572  18.8860  18.9177
    19.0666  20.3561  21.5156  22.2941

          k = 0.3833 0.0000 0.0000 (  6445 PWs)   bands (ev):

   -21.2046 -12.9134 -11.4595  -8.8692   1.0127   2.5503   3.4281   5.1502
     5.9617   6.3718   7.6200   8.6439   9.7248  12.2610  13.1416  14.2126
    16.1999  16.5793  17.0138  17.1393  18.1331  18.4390  19.1323  19.3630
    19.5118  20.7844  21.8119  22.7683

          k = 0.3667 0.0000 0.0000 (  6441 PWs)   bands (ev):

   -21.4182 -12.6220 -11.1975  -9.1120   1.3809   2.2523   3.1346   4.8493
     5.6818   6.1616   7.5061   8.3487   9.5810  12.4624  12.8561  13.8683
    16.0196  17.0292  17.4758  17.5131  18.2386  18.5974  19.5641  19.8367
    19.9609  21.1977  22.0787  22.7817

          k = 0.3500 0.0000 0.0000 (  6445 PWs)   bands (ev):

   -21.6231 -12.3258 -10.9349  -9.3464   1.7514   1.9672   2.8525   4.5615
     5.4104   5.9602   7.3898   8.0659   9.4034  12.5812  12.7059  13.4730
    15.8582  17.4597  17.9404  17.9412  18.0398  19.0866  20.0187  20.3326
    20.4119  21.5396  22.3090  22.7202

          k = 0.3333 0.0000 0.0000 (  6429 PWs)   bands (ev):

   -21.8192 -12.0253 -10.6728  -9.5719   1.6950   2.1230   2.5824   4.2867
     5.1488   5.7682   7.2703   7.7957   9.2077  12.3175  12.9600  13.0501
    15.7382  17.6484  18.0818  18.4044  18.4067  19.5900  20.4701  20.8476
    20.8629  21.7058  22.5075  22.8599

          k = 0.3167 0.0000 0.0000 (  6435 PWs)   bands (ev):

   -22.0064 -11.7212 -10.4121  -9.7881   1.4358   2.3245   2.4946   4.0251
     4.8979   5.5859   7.1469   7.5382   9.0045  12.0654  12.6142  13.1916
    15.6842  17.4791  18.4795  18.8637  18.9004  20.0957  20.9007  21.3125
    21.3799  21.6936  22.6940  23.2153

          k = 0.3000 0.0000 0.0000 (  6443 PWs)   bands (ev):

   -22.1844 -11.4142 -10.1538  -9.9948   1.1897   2.0790   2.8648   3.7768
     4.6583   5.4139   7.0185   7.2934   8.8004  11.8252  12.1750  13.3672
    15.7234  17.2689  18.9063  19.3129  19.4173  20.5723  21.2895  21.6385
    21.7603  21.9283  22.9018  23.6822

          k = 0.2833 0.0000 0.0000 (  6441 PWs)   bands (ev):

   -22.3533 -11.1051 -10.1915  -9.8989   0.9568   1.8463   3.2323   3.5418
     4.4305   5.2524   6.8836   7.0615   8.5998  11.5973  11.7403  13.4637
    15.8742  17.0598  19.3019  19.7458  19.9542  20.9053  21.6215  21.7163
    22.2082  22.4921  23.1597  24.1288

          k = 0.2667 0.0000 0.0000 (  6447 PWs)   bands (ev):

   -22.5129 -10.7949 -10.3782  -9.6488   0.7370   1.6264   3.3201   3.5955
     4.2147   5.1016   6.7407   6.8424   8.4054  11.3164  11.3817  13.4810
    16.1323  16.8581  19.6311  20.1557  20.5092  20.9616  21.9120  22.0832
    22.6607  23.0709  23.4246  24.0238

          k = 0.2500 0.0000 0.0000 (  6449 PWs)   bands (ev):

   -22.6632 -10.5545 -10.4846  -9.4044   0.5304   1.4195   3.1118   3.9527
     4.0113   4.9618   6.5881   6.6363   8.2191  10.9089  11.1786  13.4386
    16.4743  16.6659  19.8584  20.5365  20.8831  21.0809  22.2104  22.6074
    23.1246  23.4686  23.6644  24.2267

          k = 0.2333 0.0000 0.0000 (  6453 PWs)   bands (ev):

   -22.8041 -10.7202 -10.1755  -9.1672   0.3371   1.2256   2.9170   3.8205
     4.3020   4.8331   6.4242   6.4430   8.0422  10.5232  10.9881  13.3591
    16.4842  16.8725  19.9637  20.7801  20.8846  21.6685  22.5578  23.1851
    23.3399  23.6075  24.2722  24.6828

          k = 0.2167 0.0000 0.0000 (  6463 PWs)   bands (ev):

   -22.9355 -10.8752  -9.8692  -8.9383   0.1571   1.0448   2.7355   3.6424
     4.6414   4.7155   6.2476   6.2628   7.8756  10.1638  10.8104  13.2599
    16.3137  17.3024  19.9562  20.6870  21.1997  22.2714  22.9018  23.2604
    23.7879  24.1156  24.8941  25.2242

          k = 0.2000 0.0000 0.0000 (  6475 PWs)   bands (ev):

   -23.0573 -11.0192  -9.5673  -8.7191  -0.0096   0.8773   2.5675   3.4772
     4.6089   4.9690   6.0575   6.0954   7.7198   9.8347  10.6454  13.1521
    16.1548  17.7415  19.8643  20.6228  21.4855  22.8890  22.9063  23.5899
    24.4039  24.6522  25.5300  25.8078

          k = 0.1833 0.0000 0.0000 (  6479 PWs)   bands (ev):

   -23.1695 -11.1522  -9.2719  -8.5110  -0.1630   0.7230   2.4130   3.3249
     4.5133   5.2823   5.8545   5.9411   7.5755   9.5387  10.4934  13.0430
    16.0078  18.1644  19.7170  20.6081  21.7479  22.7727  23.5208  24.1189
    25.0164  25.2179  25.8625  26.1798

          k = 0.1667 0.0000 0.0000 (  6493 PWs)   bands (ev):

   -23.2722 -11.2740  -8.9852  -8.3153  -0.3031   0.5821   2.2719   3.1856
     4.4284   5.5792   5.6404   5.7998   7.4429   9.2774  10.3542  12.9369
    15.8729  18.5374  19.5375  20.6721  21.9942  22.6368  24.1666  24.7012
    25.4950  25.8114  25.9055  26.8431

          k = 0.1500 0.0000 0.0000 (  6495 PWs)   bands (ev):

   -23.3651 -11.3845  -8.7098  -8.1333  -0.4299   0.4544   2.1442   3.0595
     4.3539   5.4186   5.6715   5.8573   7.3224   9.0507  10.2281  12.8367
    15.7502  18.8227  19.3426  20.8482  22.2309  22.5117  24.8260  25.3157
    25.5238  26.4123  26.4305  27.5198

          k = 0.1333 0.0000 0.0000 (  6497 PWs)   bands (ev):

   -23.4484 -11.4836  -8.4488  -7.9664  -0.5433   0.3402   2.0301   2.9465
     4.2895   5.1941   5.5564   6.1142   7.2141   8.8573  10.1150  12.7441
    15.6399  19.0017  19.1447  21.1504  22.3996  22.4635  25.4520  25.4985
    25.9539  27.0173  27.0727  28.2097

          k = 0.1167 0.0000 0.0000 (  6489 PWs)   bands (ev):

   -23.5219 -11.5713  -8.2053  -7.8158  -0.6434   0.2393   1.9293   2.8467
     4.2346   4.9731   5.4544   6.3476   7.1183   8.6952  10.0150  12.6606
    15.5422  18.9531  19.0914  21.5558  22.3011  22.6959  25.3852  26.1839
    26.6110  27.5617  27.7353  28.7592

          k = 0.1000 0.0000 0.0000 (  6493 PWs)   bands (ev):

   -23.5857 -11.6474  -7.9831  -7.6826  -0.7301   0.1518   1.8421   2.7602
     4.1888   4.7624   5.3656   6.5552   7.0350   8.5616   9.9282  12.5870
    15.4572  18.7749  19.1250  22.0225  22.2161  22.9293  25.3383  26.8815
    27.2830  27.9066  28.4154  29.0796

          k = 0.0833 0.0000 0.0000 (  6491 PWs)   bands (ev):

   -23.6397 -11.7118  -7.7858  -7.5680  -0.8034   0.0778   1.7682   2.6869
     4.1514   4.5690   5.2902   6.7348   6.9644   8.4538   9.8547  12.5239
    15.3850  18.6158  19.1292  22.1445  22.5107  23.1626  25.3211  27.5905
    27.9662  28.0029  28.6889  29.1153

          k = 0.0667 0.0000 0.0000 (  6503 PWs)   bands (ev):

   -23.6839 -11.7647  -7.6175  -7.4728  -0.8634   0.0172   1.7079   2.6269
     4.1218   4.3997   5.2283   6.8847   6.9066   8.3691   9.7944  12.4718
    15.3257  18.4802  19.1202  22.0861  22.9826  23.3904  25.3467  27.9552
    28.2706  28.3096  28.6560  29.8215

          k = 0.0500 0.0000 0.0000 (  6501 PWs)   bands (ev):

   -23.7183 -11.8058  -7.4818  -7.3980  -0.9101  -0.0299   1.6609   2.5803
     4.0996   4.2607   5.1799   6.8615   7.0030   8.3056   9.7474  12.4310
    15.2795  18.3713  19.1072  22.0409  23.3964  23.6027  25.4324  27.8241
    27.8999  29.0363  29.3444  30.2640

          k = 0.0333 0.0000 0.0000 (  6515 PWs)   bands (ev):

   -23.7429 -11.8352  -7.3821  -7.3440  -0.9434  -0.0636   1.6274   2.5469
     4.0841   4.1573   5.1453   6.8293   7.0886   8.2614   9.7139  12.4017
    15.2464  18.2918  19.0952  22.0086  23.7080  23.7823  25.5875  27.6026
    27.6339  29.7642  30.0131  30.2356

          k = 0.0167 0.0000 0.0000 (  6509 PWs)   bands (ev):

   -23.7576 -11.8529  -7.3211  -7.3115  -0.9634  -0.0838   1.6072   2.5269
     4.0750   4.0935   5.1245   6.8099   7.1403   8.2353   9.6937  12.3840
    15.2265  18.2434  19.0871  21.9893  23.8919  23.9061  25.7724  27.4066
    27.4335  30.0550  30.2143  30.4694

          k = 0.0000 0.0000 0.0000 (  6513 PWs)   bands (ev):

   -23.7625 -11.8587  -7.3006  -7.3006  -0.9701  -0.0905   1.6005   2.5202
     4.0720   4.0720   5.1175   6.8035   7.1576   8.2267   9.6870  12.3781
    15.2198  18.2271  19.0843  21.9829  23.9508  23.9508  25.8652  27.3376
    27.3376  29.9773  30.2088  30.9361

     Writing all to output data dir ./graphene.save/
 
     init_run     :      1.08s CPU      2.50s WALL (       1 calls)
     electrons    :     29.70s CPU     34.43s WALL (       1 calls)

     Called by init_run:
     wfcinit      :      0.00s CPU      0.09s WALL (       1 calls)
     wfcinit:atom :      0.00s CPU      0.01s WALL (      15 calls)
     wfcinit:wfcr :      0.34s CPU      1.35s WALL (      15 calls)
     potinit      :      0.08s CPU      1.22s WALL (       1 calls)
     hinit0       :      0.09s CPU      0.25s WALL (       1 calls)

     Called by electrons:
     c_bands      :     29.68s CPU     34.39s WALL (       1 calls)
     v_of_rho     :      0.01s CPU      0.57s WALL (       1 calls)
     v_h          :      0.00s CPU      0.05s WALL (       1 calls)
     v_xc         :      0.01s CPU      0.52s WALL (       1 calls)
     newd         :      0.16s CPU      0.17s WALL (       1 calls)
     PAW_pot      :      0.05s CPU      0.33s WALL (       1 calls)

     Called by c_bands:
     init_us_2    :      0.01s CPU      0.01s WALL (      15 calls)
     init_us_2:cp :      0.01s CPU      0.01s WALL (      15 calls)
     cegterg      :     13.27s CPU     15.57s WALL (      50 calls)

     Called by sum_band:

     Called by *egterg:
     cdiaghg      :      1.34s CPU      1.85s WALL (     853 calls)
     cegterg:over :      1.07s CPU      1.35s WALL (     838 calls)
     cegterg:upda :      0.88s CPU      1.06s WALL (     838 calls)
     cegterg:last :      1.91s CPU      2.14s WALL (     381 calls)
     cdiaghg:chol :      0.12s CPU      0.14s WALL (     853 calls)
     cdiaghg:inve :      0.03s CPU      0.03s WALL (     853 calls)
     cdiaghg:para :      0.16s CPU      0.21s WALL (    1706 calls)
     h_psi        :      7.73s CPU      9.79s WALL (     903 calls)
     s_psi        :      0.12s CPU      0.12s WALL (     903 calls)
     g_psi        :      0.12s CPU      0.12s WALL (     838 calls)

     Called by h_psi:
     h_psi:calbec :      0.35s CPU      0.42s WALL (     903 calls)
     vloc_psi     :      6.91s CPU      8.84s WALL (     903 calls)
     add_vuspsi   :      0.32s CPU      0.38s WALL (     903 calls)

     General routines
     calbec       :      0.35s CPU      0.42s WALL (     903 calls)
     fft          :      0.01s CPU      0.48s WALL (      13 calls)
     ffts         :      0.00s CPU      0.00s WALL (       1 calls)
     fftw         :      5.74s CPU      7.39s WALL (   22640 calls)
     interpolate  :      0.00s CPU      0.00s WALL (       1 calls)
     davcio       :      0.01s CPU      0.02s WALL (      30 calls)
 
     Parallel routines

     PAW routines
     PAW_pot      :      0.05s CPU      0.33s WALL (       1 calls)
 
     PWSCF        :     32.45s CPU     45.87s WALL

 
   This run was terminated on:  22:49:54  24Jun2022            

=------------------------------------------------------------------------------=
   JOB DONE.
=------------------------------------------------------------------------------=
