
     Program PWSCF v.6.8 starts on  9Jun2022 at 15:38:11 

     This program is part of the open-source Quantum ESPRESSO suite
     for quantum simulation of materials; please cite
         "P. Giannozzi et al., J. Phys.:Condens. Matter 21 395502 (2009);
         "P. Giannozzi et al., J. Phys.:Condens. Matter 29 465901 (2017);
         "P. Giannozzi et al., J. Chem. Phys. 152 154105 (2020);
          URL http://www.quantum-espresso.org", 
     in publications or presentations arising from this work. More details at
     http://www.quantum-espresso.org/quote

     Parallel version (MPI & OpenMP), running on      64 processor cores
     Number of MPI processes:                32
     Threads/MPI process:                     2

     MPI processes distributed on     1 nodes
     K-points division:     npool     =      32
     39772 MiB available memory on the printing compute node when the environment starts
 
     Waiting for input...
     Reading input from standard input
Warning: card &IONS ignored
Warning: card     ION_DYNAMICS = "BFGS" ignored
Warning: card / ignored
Warning: card &CELL ignored
Warning: card     CELL_DOFREE    = "IBRAV" ignored
Warning: card     CELL_DYNAMICS  = "BFGS" ignored
Warning: card     PRESS_CONV_THR =  0.01 ignored
Warning: card / ignored

     Current dimensions of program PWSCF are:
     Max number of different atomic species (ntypx) = 10
     Max number of k-points (npk) =  40000
     Max angular momentum in pseudopotentials (lmaxx) =  4
     Message from routine iosys:
     wrong startingpot: use default (2)

     Atomic positions and unit cell read from directory:
     ./graphene.save/
     Atomic positions from file used, from input discarded
 
     file C.pbe-n-kjpaw_psl.1.0.0.UPF: wavefunction(s)  2S 2P renormalized

     Subspace diagonalization in iterative solution of the eigenvalue problem:
     a serial algorithm will be used

 
     G-vector sticks info
     --------------------
     sticks:   dense  smooth     PW     G-vecs:    dense   smooth      PW
     Sum         547     265     85                61509    21673    3993
 
     Using Slab Decomposition
 


     bravais-lattice index     =            4
     lattice parameter (alat)  =       4.6620  a.u.
     unit-cell volume          =     533.5275 (a.u.)^3
     number of atoms/cell      =            2
     number of atomic types    =            1
     number of electrons       =         8.00
     number of Kohn-Sham states=           32
     kinetic-energy cutoff     =      45.0000  Ry
     charge density cutoff     =     360.0000  Ry
     Exchange-correlation= SLA  PW   PBX  PBC
                           (   1   4   3   4   0   0   0)

     celldm(1)=   4.661954  celldm(2)=   0.000000  celldm(3)=   6.080259
     celldm(4)=   0.000000  celldm(5)=   0.000000  celldm(6)=   0.000000

     crystal axes: (cart. coord. in units of alat)
               a(1) = (   1.000000   0.000000   0.000000 )  
               a(2) = (  -0.500000   0.866025   0.000000 )  
               a(3) = (   0.000000   0.000000   6.080259 )  

     reciprocal axes: (cart. coord. in units 2 pi/alat)
               b(1) = (  1.000000  0.577350  0.000000 )  
               b(2) = (  0.000000  1.154701  0.000000 )  
               b(3) = (  0.000000  0.000000  0.164467 )  


     PseudoPot. # 1 for C  read from file:
     ./pseudo/C.pbe-n-kjpaw_psl.1.0.0.UPF
     MD5 check sum: 6fec8efd722f5d988670a8dc528584a2
     Pseudo is Projector augmented-wave + core cor, Zval =  4.0
     Generated using "atomic" code by A. Dal Corso  v.5.1.2
     Shape of augmentation charge: PSQ
     Using radial grid of 1073 points,  4 beta functions with: 
                l(1) =   0
                l(2) =   0
                l(3) =   1
                l(4) =   1
     Q(r) pseudized with 0 coefficients 


     atomic species   valence    mass     pseudopotential
        C              4.00    12.01070     C ( 1.00)

     24 Sym. Ops., with inversion, found


                                    s                        frac. trans.

      isym =  1     identity                                     

 cryst.   s( 1) = (     1          0          0      )
                  (     0          1          0      )
                  (     0          0          1      )

 cart.    s( 1) = (  1.0000000  0.0000000  0.0000000 )
                  (  0.0000000  1.0000000  0.0000000 )
                  (  0.0000000  0.0000000  1.0000000 )


      isym =  2     180 deg rotation - cart. axis [0,0,1]        

 cryst.   s( 2) = (    -1          0          0      )
                  (     0         -1          0      )
                  (     0          0          1      )

 cart.    s( 2) = ( -1.0000000  0.0000000  0.0000000 )
                  (  0.0000000 -1.0000000  0.0000000 )
                  (  0.0000000  0.0000000  1.0000000 )


      isym =  3     180 deg rotation - cart. axis [0,1,0]        

 cryst.   s( 3) = (    -1          0          0      )
                  (     1          1          0      )
                  (     0          0         -1      )

 cart.    s( 3) = ( -1.0000000  0.0000000  0.0000000 )
                  (  0.0000000  1.0000000  0.0000000 )
                  (  0.0000000  0.0000000 -1.0000000 )


      isym =  4     180 deg rotation - cart. axis [1,0,0]        

 cryst.   s( 4) = (     1          0          0      )
                  (    -1         -1          0      )
                  (     0          0         -1      )

 cart.    s( 4) = (  1.0000000  0.0000000  0.0000000 )
                  (  0.0000000 -1.0000000  0.0000000 )
                  (  0.0000000  0.0000000 -1.0000000 )


      isym =  5      60 deg rotation - cryst. axis [0,0,1]       

 cryst.   s( 5) = (     1          1          0      )
                  (    -1          0          0      )
                  (     0          0          1      )

 cart.    s( 5) = (  0.5000000 -0.8660254  0.0000000 )
                  (  0.8660254  0.5000000  0.0000000 )
                  (  0.0000000  0.0000000  1.0000000 )


      isym =  6      60 deg rotation - cryst. axis [0,0,-1]      

 cryst.   s( 6) = (     0         -1          0      )
                  (     1          1          0      )
                  (     0          0          1      )

 cart.    s( 6) = (  0.5000000  0.8660254  0.0000000 )
                  ( -0.8660254  0.5000000  0.0000000 )
                  (  0.0000000  0.0000000  1.0000000 )


      isym =  7     120 deg rotation - cryst. axis [0,0,1]       

 cryst.   s( 7) = (     0          1          0      )
                  (    -1         -1          0      )
                  (     0          0          1      )

 cart.    s( 7) = ( -0.5000000 -0.8660254  0.0000000 )
                  (  0.8660254 -0.5000000  0.0000000 )
                  (  0.0000000  0.0000000  1.0000000 )


      isym =  8     120 deg rotation - cryst. axis [0,0,-1]      

 cryst.   s( 8) = (    -1         -1          0      )
                  (     1          0          0      )
                  (     0          0          1      )

 cart.    s( 8) = ( -0.5000000  0.8660254  0.0000000 )
                  ( -0.8660254 -0.5000000  0.0000000 )
                  (  0.0000000  0.0000000  1.0000000 )


      isym =  9     180 deg rotation - cryst. axis [1,-1,0]      

 cryst.   s( 9) = (     0         -1          0      )
                  (    -1          0          0      )
                  (     0          0         -1      )

 cart.    s( 9) = (  0.5000000 -0.8660254  0.0000000 )
                  ( -0.8660254 -0.5000000  0.0000000 )
                  (  0.0000000  0.0000000 -1.0000000 )


      isym = 10     180 deg rotation - cryst. axis [2,1,0]       

 cryst.   s(10) = (     1          1          0      )
                  (     0         -1          0      )
                  (     0          0         -1      )

 cart.    s(10) = (  0.5000000  0.8660254  0.0000000 )
                  (  0.8660254 -0.5000000  0.0000000 )
                  (  0.0000000  0.0000000 -1.0000000 )


      isym = 11     180 deg rotation - cryst. axis [0,1,0]       

 cryst.   s(11) = (    -1         -1          0      )
                  (     0          1          0      )
                  (     0          0         -1      )

 cart.    s(11) = ( -0.5000000 -0.8660254  0.0000000 )
                  ( -0.8660254  0.5000000  0.0000000 )
                  (  0.0000000  0.0000000 -1.0000000 )


      isym = 12     180 deg rotation - cryst. axis [1,1,0]       

 cryst.   s(12) = (     0          1          0      )
                  (     1          0          0      )
                  (     0          0         -1      )

 cart.    s(12) = ( -0.5000000  0.8660254  0.0000000 )
                  (  0.8660254  0.5000000  0.0000000 )
                  (  0.0000000  0.0000000 -1.0000000 )


      isym = 13     inversion                                    

 cryst.   s(13) = (    -1          0          0      )
                  (     0         -1          0      )
                  (     0          0         -1      )

 cart.    s(13) = ( -1.0000000  0.0000000  0.0000000 )
                  (  0.0000000 -1.0000000  0.0000000 )
                  (  0.0000000  0.0000000 -1.0000000 )


      isym = 14     inv. 180 deg rotation - cart. axis [0,0,1]   

 cryst.   s(14) = (     1          0          0      )
                  (     0          1          0      )
                  (     0          0         -1      )

 cart.    s(14) = (  1.0000000  0.0000000  0.0000000 )
                  (  0.0000000  1.0000000  0.0000000 )
                  (  0.0000000  0.0000000 -1.0000000 )


      isym = 15     inv. 180 deg rotation - cart. axis [0,1,0]   

 cryst.   s(15) = (     1          0          0      )
                  (    -1         -1          0      )
                  (     0          0          1      )

 cart.    s(15) = (  1.0000000  0.0000000  0.0000000 )
                  (  0.0000000 -1.0000000  0.0000000 )
                  (  0.0000000  0.0000000  1.0000000 )


      isym = 16     inv. 180 deg rotation - cart. axis [1,0,0]   

 cryst.   s(16) = (    -1          0          0      )
                  (     1          1          0      )
                  (     0          0          1      )

 cart.    s(16) = ( -1.0000000  0.0000000  0.0000000 )
                  (  0.0000000  1.0000000  0.0000000 )
                  (  0.0000000  0.0000000  1.0000000 )


      isym = 17     inv.  60 deg rotation - cryst. axis [0,0,1]  

 cryst.   s(17) = (    -1         -1          0      )
                  (     1          0          0      )
                  (     0          0         -1      )

 cart.    s(17) = ( -0.5000000  0.8660254  0.0000000 )
                  ( -0.8660254 -0.5000000  0.0000000 )
                  (  0.0000000  0.0000000 -1.0000000 )


      isym = 18     inv.  60 deg rotation - cryst. axis [0,0,-1] 

 cryst.   s(18) = (     0          1          0      )
                  (    -1         -1          0      )
                  (     0          0         -1      )

 cart.    s(18) = ( -0.5000000 -0.8660254  0.0000000 )
                  (  0.8660254 -0.5000000  0.0000000 )
                  (  0.0000000  0.0000000 -1.0000000 )


      isym = 19     inv. 120 deg rotation - cryst. axis [0,0,1]  

 cryst.   s(19) = (     0         -1          0      )
                  (     1          1          0      )
                  (     0          0         -1      )

 cart.    s(19) = (  0.5000000  0.8660254  0.0000000 )
                  ( -0.8660254  0.5000000  0.0000000 )
                  (  0.0000000  0.0000000 -1.0000000 )


      isym = 20     inv. 120 deg rotation - cryst. axis [0,0,-1] 

 cryst.   s(20) = (     1          1          0      )
                  (    -1          0          0      )
                  (     0          0         -1      )

 cart.    s(20) = (  0.5000000 -0.8660254  0.0000000 )
                  (  0.8660254  0.5000000  0.0000000 )
                  (  0.0000000  0.0000000 -1.0000000 )


      isym = 21     inv. 180 deg rotation - cryst. axis [1,-1,0] 

 cryst.   s(21) = (     0          1          0      )
                  (     1          0          0      )
                  (     0          0          1      )

 cart.    s(21) = ( -0.5000000  0.8660254  0.0000000 )
                  (  0.8660254  0.5000000  0.0000000 )
                  (  0.0000000  0.0000000  1.0000000 )


      isym = 22     inv. 180 deg rotation - cryst. axis [2,1,0]  

 cryst.   s(22) = (    -1         -1          0      )
                  (     0          1          0      )
                  (     0          0          1      )

 cart.    s(22) = ( -0.5000000 -0.8660254  0.0000000 )
                  ( -0.8660254  0.5000000  0.0000000 )
                  (  0.0000000  0.0000000  1.0000000 )


      isym = 23     inv. 180 deg rotation - cryst. axis [0,1,0]  

 cryst.   s(23) = (     1          1          0      )
                  (     0         -1          0      )
                  (     0          0          1      )

 cart.    s(23) = (  0.5000000  0.8660254  0.0000000 )
                  (  0.8660254 -0.5000000  0.0000000 )
                  (  0.0000000  0.0000000  1.0000000 )


      isym = 24     inv. 180 deg rotation - cryst. axis [1,1,0]  

 cryst.   s(24) = (     0         -1          0      )
                  (    -1          0          0      )
                  (     0          0          1      )

 cart.    s(24) = (  0.5000000 -0.8660254  0.0000000 )
                  ( -0.8660254 -0.5000000  0.0000000 )
                  (  0.0000000  0.0000000  1.0000000 )


     point group D_6h(6/mmm)
     there are 12 classes
     the character table:

       E     2C6   2C3   C2    3C2'  3C2'' i     2S3   2S6   s_h   3s_d  3s_v 
A_1g   1.00  1.00  1.00  1.00  1.00  1.00  1.00  1.00  1.00  1.00  1.00  1.00
A_2g   1.00  1.00  1.00  1.00 -1.00 -1.00  1.00  1.00  1.00  1.00 -1.00 -1.00
B_1g   1.00 -1.00  1.00 -1.00  1.00 -1.00  1.00 -1.00  1.00 -1.00  1.00 -1.00
B_2g   1.00 -1.00  1.00 -1.00 -1.00  1.00  1.00 -1.00  1.00 -1.00 -1.00  1.00
E_1g   2.00  1.00 -1.00 -2.00  0.00  0.00  2.00  1.00 -1.00 -2.00  0.00  0.00
E_2g   2.00 -1.00 -1.00  2.00  0.00  0.00  2.00 -1.00 -1.00  2.00  0.00  0.00
A_1u   1.00  1.00  1.00  1.00  1.00  1.00 -1.00 -1.00 -1.00 -1.00 -1.00 -1.00
A_2u   1.00  1.00  1.00  1.00 -1.00 -1.00 -1.00 -1.00 -1.00 -1.00  1.00  1.00
B_1u   1.00 -1.00  1.00 -1.00  1.00 -1.00 -1.00  1.00 -1.00  1.00 -1.00  1.00
B_2u   1.00 -1.00  1.00 -1.00 -1.00  1.00 -1.00  1.00 -1.00  1.00  1.00 -1.00
E_1u   2.00  1.00 -1.00 -2.00  0.00  0.00 -2.00 -1.00  1.00  2.00  0.00  0.00
E_2u   2.00 -1.00 -1.00  2.00  0.00  0.00 -2.00  1.00  1.00 -2.00  0.00  0.00

     the symmetry operations in each class and the name of the first element:

     E        1
          identity                                               
     2C6      5    6
           60 deg rotation - cryst. axis [0,0,1]                 
     2C3      7    8
          120 deg rotation - cryst. axis [0,0,1]                 
     C2       2
          180 deg rotation - cart. axis [0,0,1]                  
     3C2'     4   12   11
          180 deg rotation - cart. axis [1,0,0]                  
     3C2''    3    9   10
          180 deg rotation - cart. axis [0,1,0]                  
     i       13
          inversion                                              
     2S3     17   18
          inv.  60 deg rotation - cryst. axis [0,0,1]            
     2S6     19   20
          inv. 120 deg rotation - cryst. axis [0,0,1]            
     s_h     14
          inv. 180 deg rotation - cart. axis [0,0,1]             
     3s_d    16   24   23
          inv. 180 deg rotation - cart. axis [1,0,0]             
     3s_v    15   21   22
          inv. 180 deg rotation - cart. axis [0,1,0]             

   Cartesian axes

     site n.     atom                  positions (alat units)
         1           C   tau(   1) = (  -0.0000005   0.5773506   3.0401297  )
         2           C   tau(   2) = (   0.5000005   0.2886748   3.0401297  )

   Crystallographic axes

     site n.     atom                  positions (cryst. coord.)
         1           C   tau(   1) = (  0.3333330  0.6666670  0.5000000  )
         2           C   tau(   2) = (  0.6666670  0.3333330  0.5000000  )

     number of k points=    53  Gaussian smearing, width (Ry)=  0.0100
                       cart. coord. in units 2pi/alat
        k(    1) = (   0.0000000   0.0000000   0.0000000), wk =   0.0377358
        k(    2) = (   0.0250000   0.0144338   0.0000000), wk =   0.0377358
        k(    3) = (   0.0500000   0.0288675   0.0000000), wk =   0.0377358
        k(    4) = (   0.0750000   0.0433013   0.0000000), wk =   0.0377358
        k(    5) = (   0.1000000   0.0577350   0.0000000), wk =   0.0377358
        k(    6) = (   0.1250000   0.0721688   0.0000000), wk =   0.0377358
        k(    7) = (   0.1500000   0.0866025   0.0000000), wk =   0.0377358
        k(    8) = (   0.1750000   0.1010363   0.0000000), wk =   0.0377358
        k(    9) = (   0.2000000   0.1154701   0.0000000), wk =   0.0377358
        k(   10) = (   0.2250000   0.1299038   0.0000000), wk =   0.0377358
        k(   11) = (   0.2500000   0.1443376   0.0000000), wk =   0.0377358
        k(   12) = (   0.2750000   0.1587713   0.0000000), wk =   0.0377358
        k(   13) = (   0.3000000   0.1732051   0.0000000), wk =   0.0377358
        k(   14) = (   0.3250000   0.1876388   0.0000000), wk =   0.0377358
        k(   15) = (   0.3500000   0.2020726   0.0000000), wk =   0.0377358
        k(   16) = (   0.3750000   0.2165064   0.0000000), wk =   0.0377358
        k(   17) = (   0.4000000   0.2309401   0.0000000), wk =   0.0377358
        k(   18) = (   0.4250000   0.2453739   0.0000000), wk =   0.0377358
        k(   19) = (   0.4500000   0.2598076   0.0000000), wk =   0.0377358
        k(   20) = (   0.4750000   0.2742414   0.0000000), wk =   0.0377358
        k(   21) = (   0.5000000   0.2886751   0.0000000), wk =   0.0377358
        k(   22) = (   0.5138889   0.2646189   0.0000000), wk =   0.0377358
        k(   23) = (   0.5277778   0.2405626   0.0000000), wk =   0.0377358
        k(   24) = (   0.5416667   0.2165064   0.0000000), wk =   0.0377358
        k(   25) = (   0.5555556   0.1924501   0.0000000), wk =   0.0377358
        k(   26) = (   0.5694444   0.1683938   0.0000000), wk =   0.0377358
        k(   27) = (   0.5833333   0.1443376   0.0000000), wk =   0.0377358
        k(   28) = (   0.5972222   0.1202813   0.0000000), wk =   0.0377358
        k(   29) = (   0.6111111   0.0962250   0.0000000), wk =   0.0377358
        k(   30) = (   0.6250000   0.0721688   0.0000000), wk =   0.0377358
        k(   31) = (   0.6388889   0.0481125   0.0000000), wk =   0.0377358
        k(   32) = (   0.6527778   0.0240563   0.0000000), wk =   0.0377358
        k(   33) = (   0.6666667   0.0000000   0.0000000), wk =   0.0377358
        k(   34) = (   0.6333333   0.0000000   0.0000000), wk =   0.0377358
        k(   35) = (   0.6000000   0.0000000   0.0000000), wk =   0.0377358
        k(   36) = (   0.5666667   0.0000000   0.0000000), wk =   0.0377358
        k(   37) = (   0.5333333   0.0000000   0.0000000), wk =   0.0377358
        k(   38) = (   0.5000000   0.0000000   0.0000000), wk =   0.0377358
        k(   39) = (   0.4666667   0.0000000   0.0000000), wk =   0.0377358
        k(   40) = (   0.4333333   0.0000000   0.0000000), wk =   0.0377358
        k(   41) = (   0.4000000   0.0000000   0.0000000), wk =   0.0377358
        k(   42) = (   0.3666667   0.0000000   0.0000000), wk =   0.0377358
        k(   43) = (   0.3333333   0.0000000   0.0000000), wk =   0.0377358
        k(   44) = (   0.3000000   0.0000000   0.0000000), wk =   0.0377358
        k(   45) = (   0.2666667   0.0000000   0.0000000), wk =   0.0377358
        k(   46) = (   0.2333333   0.0000000   0.0000000), wk =   0.0377358
        k(   47) = (   0.2000000   0.0000000   0.0000000), wk =   0.0377358
        k(   48) = (   0.1666667   0.0000000   0.0000000), wk =   0.0377358
        k(   49) = (   0.1333333   0.0000000   0.0000000), wk =   0.0377358
        k(   50) = (   0.1000000   0.0000000   0.0000000), wk =   0.0377358
        k(   51) = (   0.0666667   0.0000000   0.0000000), wk =   0.0377358
        k(   52) = (   0.0333333   0.0000000   0.0000000), wk =   0.0377358
        k(   53) = (   0.0000000   0.0000000   0.0000000), wk =   0.0377358

                       cryst. coord.
        k(    1) = (   0.0000000   0.0000000   0.0000000), wk =   0.0377358
        k(    2) = (   0.0250000   0.0000000   0.0000000), wk =   0.0377358
        k(    3) = (   0.0500000   0.0000000   0.0000000), wk =   0.0377358
        k(    4) = (   0.0750000   0.0000000   0.0000000), wk =   0.0377358
        k(    5) = (   0.1000000   0.0000000   0.0000000), wk =   0.0377358
        k(    6) = (   0.1250000   0.0000000   0.0000000), wk =   0.0377358
        k(    7) = (   0.1500000   0.0000000   0.0000000), wk =   0.0377358
        k(    8) = (   0.1750000   0.0000000   0.0000000), wk =   0.0377358
        k(    9) = (   0.2000000   0.0000000   0.0000000), wk =   0.0377358
        k(   10) = (   0.2250000   0.0000000   0.0000000), wk =   0.0377358
        k(   11) = (   0.2500000   0.0000000   0.0000000), wk =   0.0377358
        k(   12) = (   0.2750000   0.0000000   0.0000000), wk =   0.0377358
        k(   13) = (   0.3000000   0.0000000   0.0000000), wk =   0.0377358
        k(   14) = (   0.3250000   0.0000000   0.0000000), wk =   0.0377358
        k(   15) = (   0.3500000   0.0000000   0.0000000), wk =   0.0377358
        k(   16) = (   0.3750000   0.0000000   0.0000000), wk =   0.0377358
        k(   17) = (   0.4000000   0.0000000   0.0000000), wk =   0.0377358
        k(   18) = (   0.4250000   0.0000000   0.0000000), wk =   0.0377358
        k(   19) = (   0.4500000   0.0000000   0.0000000), wk =   0.0377358
        k(   20) = (   0.4750000   0.0000000   0.0000000), wk =   0.0377358
        k(   21) = (   0.5000000   0.0000000   0.0000000), wk =   0.0377358
        k(   22) = (   0.5138889  -0.0277778   0.0000000), wk =   0.0377358
        k(   23) = (   0.5277778  -0.0555556   0.0000000), wk =   0.0377358
        k(   24) = (   0.5416667  -0.0833333   0.0000000), wk =   0.0377358
        k(   25) = (   0.5555556  -0.1111111   0.0000000), wk =   0.0377358
        k(   26) = (   0.5694444  -0.1388889   0.0000000), wk =   0.0377358
        k(   27) = (   0.5833333  -0.1666667   0.0000000), wk =   0.0377358
        k(   28) = (   0.5972222  -0.1944444   0.0000000), wk =   0.0377358
        k(   29) = (   0.6111111  -0.2222222   0.0000000), wk =   0.0377358
        k(   30) = (   0.6250000  -0.2500000   0.0000000), wk =   0.0377358
        k(   31) = (   0.6388889  -0.2777778   0.0000000), wk =   0.0377358
        k(   32) = (   0.6527778  -0.3055556   0.0000000), wk =   0.0377358
        k(   33) = (   0.6666667  -0.3333333   0.0000000), wk =   0.0377358
        k(   34) = (   0.6333333  -0.3166667   0.0000000), wk =   0.0377358
        k(   35) = (   0.6000000  -0.3000000   0.0000000), wk =   0.0377358
        k(   36) = (   0.5666667  -0.2833333   0.0000000), wk =   0.0377358
        k(   37) = (   0.5333333  -0.2666667   0.0000000), wk =   0.0377358
        k(   38) = (   0.5000000  -0.2500000   0.0000000), wk =   0.0377358
        k(   39) = (   0.4666667  -0.2333333   0.0000000), wk =   0.0377358
        k(   40) = (   0.4333333  -0.2166667   0.0000000), wk =   0.0377358
        k(   41) = (   0.4000000  -0.2000000   0.0000000), wk =   0.0377358
        k(   42) = (   0.3666667  -0.1833333   0.0000000), wk =   0.0377358
        k(   43) = (   0.3333333  -0.1666667   0.0000000), wk =   0.0377358
        k(   44) = (   0.3000000  -0.1500000   0.0000000), wk =   0.0377358
        k(   45) = (   0.2666667  -0.1333333   0.0000000), wk =   0.0377358
        k(   46) = (   0.2333333  -0.1166667   0.0000000), wk =   0.0377358
        k(   47) = (   0.2000000  -0.1000000   0.0000000), wk =   0.0377358
        k(   48) = (   0.1666667  -0.0833333   0.0000000), wk =   0.0377358
        k(   49) = (   0.1333333  -0.0666667   0.0000000), wk =   0.0377358
        k(   50) = (   0.1000000  -0.0500000   0.0000000), wk =   0.0377358
        k(   51) = (   0.0666667  -0.0333333   0.0000000), wk =   0.0377358
        k(   52) = (   0.0333333  -0.0166667   0.0000000), wk =   0.0377358
        k(   53) = (   0.0000000   0.0000000   0.0000000), wk =   0.0377358

     Dense  grid:    61509 G-vectors     FFT dimensions: (  30,  30, 180)

     Smooth grid:    21673 G-vectors     FFT dimensions: (  20,  20, 125)

     Dynamical RAM for                 wfc:       1.33 MB

     Dynamical RAM for     wfc (w. buffer):       1.33 MB

     Dynamical RAM for           str. fact:       0.94 MB

     Dynamical RAM for           local pot:       0.00 MB

     Dynamical RAM for          nlocal pot:       0.66 MB

     Dynamical RAM for                qrad:       0.44 MB

     Dynamical RAM for          rho,v,vnew:       6.52 MB

     Dynamical RAM for           G-vectors:       3.68 MB

     Dynamical RAM for          h,s,v(r/c):       0.19 MB

     Dynamical RAM for          <psi|beta>:       0.01 MB

     Dynamical RAM for                 psi:       2.66 MB

     Dynamical RAM for                hpsi:       2.66 MB

     Dynamical RAM for                spsi:       2.66 MB

     Dynamical RAM for      wfcinit/wfcrot:       2.68 MB

     Dynamical RAM for           addusdens:       2.23 MB

     Estimated static dynamical RAM per process >      21.63 MB

     Estimated max dynamical RAM per process >      29.80 MB

     Estimated total dynamical RAM >     953.45 MB

     Check: negative core charge=   -0.000005

     The potential is recalculated from file :
     ./graphene.save/charge-density


     negative rho (up, down):  2.163E-04 0.000E+00
     Starting wfcs are    8 randomized atomic wfcs +   24 random wfcs
     Checking if some PAW data can be deallocated... 

     Band Structure Calculation
     Davidson diagonalization with overlap

     Computing kpt #:     1  of     2 on this pool
     total cpu time spent up to now is       25.0 secs

     Computing kpt #:     2  of     2 on this pool
     total cpu time spent up to now is       28.1 secs

     ethr =  1.25E-11,  avg # of iterations = 35.7

     total cpu time spent up to now is       31.9 secs

     End of band structure calculation

          k = 0.0000 0.0000 0.0000 (  2641 PWs)   bands (ev):

   -21.2423  -9.3373  -4.7779  -4.7778   1.4201   2.2451   2.5054   4.4762
     5.3131   6.5975   6.5976   8.4534   9.5812   9.6818  10.7524  13.7932
    15.2987  20.3689  20.7531  22.4610  26.4810  26.4810  27.4277  29.8649
    29.8649  30.9571  31.8524  33.4369  33.4369  33.9208  33.9208  34.3515

          k = 0.0250 0.0144 0.0000 (  2639 PWs)   bands (ev):

   -21.2276  -9.3196  -4.8393  -4.8102   1.4402   2.2654   2.5257   4.4963
     5.3329   6.6071   6.6621   8.4729   9.6015   9.6299  10.7783  13.8113
    15.3187  20.3806  20.8019  22.4803  26.3165  26.3267  27.3328  29.8643
    30.0651  30.9753  32.2061  32.3438  32.8638  33.4936  33.7079  33.7205

          k = 0.0500 0.0289 0.0000 (  2647 PWs)   bands (ev):

   -21.1833  -9.2667  -5.0199  -4.9051   1.5006   2.3263   2.5867   4.5564
     5.3921   6.6313   6.8533   8.5315   9.4762   9.6624  10.8580  13.8655
    15.3784  20.4138  20.9446  22.5386  25.7956  25.9080  27.2797  29.8788
    30.5778  30.8969  31.0323  32.1164  32.1376  32.2474  32.8782  33.0791

          k = 0.0750 0.0433 0.0000 (  2667 PWs)   bands (ev):

   -21.1096  -9.1786  -5.3100  -5.0552   1.6013   2.4277   2.6885   4.6567
     5.4908   6.6597   7.1633   8.6288   9.2258   9.7635  10.9961  13.9552
    15.4775  20.4611  21.1708  22.6369  25.0169  25.3867  27.3699  29.4528
    29.8899  30.6125  30.8063  31.1216  31.2566  31.4372  32.1857  32.8674

          k = 0.1000 0.0577 0.0000 (  2679 PWs)   bands (ev):

   -21.0065  -9.0556  -5.6951  -5.2506   1.7423   2.5696   2.8309   4.7969
     5.6287   6.6796   7.5815   8.7622   8.8892   9.9045  11.1969  14.0796
    15.6158  20.5070  21.4615  22.7774  24.1847  24.8292  27.5142  28.0377
    29.1445  29.2594  30.0553  30.7720  31.2429  31.4908  31.6581  31.9024

          k = 0.1250 0.0722 0.0000 (  2693 PWs)   bands (ev):

   -20.8742  -8.8980  -6.1594  -5.4800   1.9236   2.7519   3.0140   4.9769
     5.8051   6.6814   8.0953   8.4646   8.9424  10.0848  11.4613  14.2374
    15.7928  20.5185  21.7852  22.9640  23.4098  24.2717  26.6692  27.4655
    27.7223  28.1027  30.0098  30.1445  30.3927  30.4083  30.9894  31.4223

          k = 0.1500 0.0866 0.0000 (  2701 PWs)   bands (ev):

   -20.7127  -8.7061  -6.6868  -5.7321   2.1451   2.9745   3.2378   5.1963
     6.0174   6.6624   7.9764   8.6920   9.1554  10.3041  11.7847  14.4266
    16.0079  20.4308  22.0878  22.7843  23.1982  23.7315  25.3708  26.3587
    26.4007  27.8074  29.0738  29.2644  29.5553  30.0038  30.3913  31.0706

          k = 0.1750 0.1010 0.0000 (  2703 PWs)   bands (ev):

   -20.5221  -8.4806  -7.2627  -5.9968   2.4068   3.2372   3.5022   5.4544
     6.2531   6.6354   7.4300   9.3591   9.4068  10.5620  12.1568  14.6441
    16.2608  20.1610  22.2525  22.3912  23.2176  23.4432  24.2204  25.1021
    25.1341  27.1897  27.7890  28.7060  29.0050  29.8465  29.8862  30.5156

          k = 0.2000 0.1155 0.0000 (  2697 PWs)   bands (ev):

   -20.3029  -8.2221  -7.8746  -6.2655   2.7086   3.5395   3.8073   5.7476
     6.4174   6.6991   6.8397   9.6957  10.0852  10.8586  12.5630  14.8849
    16.5507  19.7028  21.9576  22.1967  22.7350  23.1688  23.6666  23.9423
    24.3054  26.1609  26.5854  28.4193  28.4937  29.3371  29.7361  30.0013

          k = 0.2250 0.1299 0.0000 (  2693 PWs)   bands (ev):

   -20.0551  -8.5113  -7.9316  -6.5308   3.0503   3.8804   4.1529   6.0093
     6.2831   6.3905   6.9789  10.0213  10.8593  11.1938  12.9846  15.1403
    16.8767  19.1435  21.0680  21.9188  22.1618  22.2865  23.0081  23.5355
    24.3389  25.1169  25.5948  27.9490  28.0214  28.8323  29.3849  29.4699

          k = 0.2500 0.1443 0.0000 (  2689 PWs)   bands (ev):

   -19.7791  -9.1640  -7.6103  -6.7870   3.4319   4.2548   4.5388   5.5144
     6.3081   6.4997   7.3454  10.3826  11.5672  11.6706  13.3967  15.3936
    17.2376  18.5605  20.0012  21.0194  21.1426  21.8741  22.5683  23.2857
    24.2288  24.2570  25.2896  27.2396  27.5880  28.1456  28.6819  28.8677

          k = 0.2750 0.1588 0.0000 (  2703 PWs)   bands (ev):

   -19.4753  -9.8250  -7.2600  -7.0292   3.8529   4.5818   4.9340   4.9646
     6.2144   6.9086   7.7602  10.7778  11.9787  12.5081  13.7636  15.6098
    17.6298  17.9988  18.9377  19.9023  20.1613  21.4990  22.0766  22.4913
    23.8171  24.1985  25.4822  26.4180  27.1934  27.2469  28.2334  28.4011

          k = 0.3000 0.1732 0.0000 (  2711 PWs)   bands (ev):

   -19.1443 -10.4881  -7.2536  -6.8829   4.0935   4.3130   5.1923   5.4281
     6.1223   7.3623   8.2173  11.2046  12.4275  13.3598  14.0268  15.7103
    17.5007  17.8850  18.0854  18.8717  19.2279  21.1620  21.3397  21.5208
    23.6953  24.2096  25.5507  25.6730  26.6088  26.8372  27.9013  27.9893

          k = 0.3250 0.1876 0.0000 (  2710 PWs)   bands (ev):

   -18.7866 -11.1478  -7.4572  -6.4824   3.4108   4.8107   5.6827   5.8938
     6.0737   7.8555   8.7149  11.6588  12.9125  14.0919  14.2115  15.5574
    16.9546  17.1061  17.9537  18.4503  18.5409  20.5801  20.5868  20.8638
    23.4498  23.9744  25.2594  25.2696  26.5189  26.5708  27.5990  27.6490

          k = 0.3500 0.2021 0.0000 (  2712 PWs)   bands (ev):

   -18.4031 -11.7996  -7.6377  -6.0631   2.7280   5.3405   5.9322   6.2215
     6.5071   8.3865   9.2522  12.1324  13.4275  13.8616  15.0465  15.0920
    16.0203  16.7003  17.3118  17.9466  18.9799  19.7738  19.9713  20.6047
    22.8967  23.3689  25.0896  25.2746  26.2382  26.7046  27.1970  27.5161

          k = 0.3750 0.2165 0.0000 (  2710 PWs)   bands (ev):

   -17.9951 -12.4390  -7.7931  -5.6324   2.0648   5.7714   6.0087   6.8012
     7.0900   8.9537   9.8282  12.6040  13.3089  14.0003  14.4352  15.0777
    15.8437  16.1313  16.8170  17.6688  19.0147  19.5914  19.5993  20.3851
    22.2471  22.6249  24.9996  25.4550  25.9947  26.6987  26.7830  27.5340

          k = 0.4000 0.2309 0.0000 (  2722 PWs)   bands (ev):

   -17.5649 -13.0616  -7.9220  -5.2022   1.4383   5.7617   6.5713   7.4197
     7.7175   9.5552  10.4422  12.5950  12.9583  13.7952  14.1339  14.5859
    15.4726  16.2608  16.5761  17.4052  18.6840  19.4309  20.0353  20.2051
    21.7029  21.9407  24.8852  25.4401  25.7885  26.5432  26.5656  27.3503

          k = 0.4250 0.2454 0.0000 (  2706 PWs)   bands (ev):

   -17.1165 -13.6613  -8.0234  -4.7916   0.8717   5.7166   7.2189   8.0755
     8.3859  10.1870  11.0918  11.8027  12.6135  13.2120  13.7463  14.8423
    15.1939  15.5774  17.1122  17.2105  18.4597  19.3060  20.0650  20.3904
    21.4230  21.5038  24.7057  25.0163  25.6208  26.3817  26.6358  27.0077

          k = 0.4500 0.2598 0.0000 (  2722 PWs)   bands (ev):

   -16.6607 -14.2261  -8.0963  -4.4332   0.3999   5.6811   7.9069   8.7666
     9.0943  10.8353  10.9840  11.7829  11.8696  12.3179  13.6475  14.6252
    14.8038  15.8419  16.8238  17.7079  18.1681  19.0903  19.9649  20.4397
    21.4621  21.5575  24.4543  24.4601  25.4949  26.1609  26.6517  26.7589

          k = 0.4750 0.2742 0.0000 (  2732 PWs)   bands (ev):

   -16.2345 -14.7182  -8.1403  -4.1772   0.0751   5.6590   8.6298   9.4889
     9.8395  10.1828  11.0020  11.4555  11.5883  12.5027  13.0500  14.0246
    14.8774  16.4848  16.5756  17.7161  18.0280  18.8734  19.9048  20.3652
    21.6674  21.8547  23.9849  24.1846  25.4157  25.9629  26.4829  26.8001

          k = 0.5000 0.2887 0.0000 (  2724 PWs)   bands (ev):

   -16.0085 -14.9662  -8.1550  -4.0821  -0.0429   5.6515   9.3217   9.4576
    10.1524  10.3430  10.6189  10.6435  12.0720  12.5387  13.2219  13.2829
    15.0240  16.4618  17.0290  17.2275  18.1389  18.7850  19.8847  20.3391
    21.7877  22.0061  23.7825  24.0538  25.3885  25.8870  26.4356  26.8059

          k = 0.5139 0.2646 0.0000 (  2719 PWs)   bands (ev):

   -15.9968 -14.9546  -8.2165  -4.0655  -0.0469   5.7346   9.3381   9.4750
    10.1551  10.3619  10.6370  10.6619  12.0653  12.5574  13.2361  13.2995
    14.9737  16.4802  16.9897  17.2389  18.1518  18.5864  20.1523  20.3945
    21.8056  21.9862  23.8531  24.0670  24.4391  25.6912  25.7748  26.1340

          k = 0.5278 0.2406 0.0000 (  2727 PWs)   bands (ev):

   -15.9617 -14.9199  -8.3961  -4.0155  -0.0595   5.9787   9.3871   9.5270
    10.1593  10.4184  10.6914  10.7171  12.0438  12.6136  13.2784  13.3494
    14.8366  16.5355  16.8784  17.2720  18.1940  18.2780  20.5504  20.6344
    21.8591  21.9167  23.2347  24.0563  24.1067  24.4332  24.5838  25.9440

          k = 0.5417 0.2165 0.0000 (  2725 PWs)   bands (ev):

   -15.9031 -14.8627  -8.6804  -3.9324  -0.0833   6.3692   9.4682   9.6134
    10.1534  10.5125  10.7819  10.8089  12.0063  12.7072  13.3472  13.4320
    14.6548  16.6277  16.7134  17.3241  18.0544  18.2717  20.7834  21.0304
    21.6977  21.9481  22.1340  23.1919  23.3816  24.1726  24.5151  25.5123

          k = 0.5556 0.1925 0.0000 (  2723 PWs)   bands (ev):

   -15.8212 -14.7839  -9.0507  -3.8161  -0.1225   6.8853   9.5807   9.7338
    10.1166  10.6443  10.9083  10.9373  11.9607  12.8382  13.4396  13.5463
    14.4891  16.5186  16.7565  17.3901  17.9353  18.3880  20.7606  21.0679
    21.0902  21.6652  22.0378  22.0726  22.4497  24.2646  24.5971  24.5978

          k = 0.5694 0.1684 0.0000 (  2725 PWs)   bands (ev):

   -15.7159 -14.6850  -9.4866  -3.6668  -0.1826   7.5029   9.7231   9.8874
    10.0230  10.8137  11.0702  11.1020  11.9337  13.0067  13.5506  13.6909
    14.3908  16.3183  16.9221  17.4603  17.8913  18.5432  19.6375  20.5124
    20.7450  21.3821  21.5272  21.9134  22.2323  23.5182  23.7870  24.3827

          k = 0.5833 0.1443 0.0000 (  2741 PWs)   bands (ev):

   -15.5873 -14.5685  -9.9674  -3.4848  -0.2706   8.1960   9.8587   9.8935
    10.0733  11.0206  11.2672  11.3028  11.9615  13.2124  13.6724  13.8632
    14.3807  16.1362  17.1242  17.5151  17.8619  18.5453  18.7367  19.6165
    19.6244  21.2089  21.3605  21.7075  22.4268  22.4632  23.3184  24.5279

          k = 0.5972 0.1203 0.0000 (  2749 PWs)   bands (ev):

   -15.4354 -14.4391 -10.4731  -3.2702  -0.3940   8.9355   9.6393  10.0886
    10.2909  11.2651  11.4982  11.5392  12.0652  13.4554  13.7931  14.0594
    14.4523  15.9975  17.3628  17.3632  17.6674  17.6841  18.5425  18.8328
    18.9678  20.6078  20.8111  21.5324  22.0273  22.6558  23.0700  24.7026

          k = 0.6111 0.0962 0.0000 (  2757 PWs)   bands (ev):

   -15.2603 -14.3050 -10.9829  -3.0234  -0.5600   9.4028   9.6830  10.3035
    10.5420  11.5470  11.7621  11.8108  12.2432  13.7356  13.8980  14.2724
    14.5828  15.9289  16.4306  17.0857  17.3793  17.6375  17.6994  18.4192
    19.2356  19.8789  20.1255  20.9903  22.3244  22.7319  22.9187  24.4311

          k = 0.6250 0.0722 0.0000 (  2765 PWs)   bands (ev):

   -15.0621 -14.1829 -11.4702  -2.7448  -0.7745   9.1880  10.3664  10.5305
    10.8460  11.8663  12.0567  12.1170  12.4828  13.9770  14.0528  14.4864
    14.7257  15.4928  15.9546  16.2721  16.4559  17.5583  17.9483  18.0062
    19.2553  19.4566  19.5395  20.7971  22.1774  22.5806  23.2147  23.5252

          k = 0.6389 0.0481 0.0000 (  2769 PWs)   bands (ev):

   -14.8409 -14.1064 -11.8934  -2.4347  -1.0406   9.0233  10.7577  10.8403
    11.2590  12.2229  12.3787  12.4559  12.7676  14.0369  14.4070  14.5113
    14.6969  14.7968  15.5715  15.6216  16.0855  17.3521  17.4032  18.2946
    18.4481  19.3863  19.8783  20.7734  21.5236  22.6435  22.7779  23.5428

          k = 0.6528 0.0241 0.0000 (  2771 PWs)   bands (ev):

   -14.5967 -14.1360 -12.1863  -2.0937  -1.3578   8.9235  10.9674  11.0983
    11.6248  12.6167  12.7233  12.8161  13.0589  13.8298  14.1081  14.1677
    14.5940  14.7980  15.1411  15.4645  16.3149  16.6961  17.0760  17.9230
    18.6761  19.3645  20.2505  20.8255  20.9718  21.8778  22.9013  23.9018

          k = 0.6667 0.0000 0.0000 (  2763 PWs)   bands (ev):

   -14.3298 -14.3298 -12.2862  -1.7225  -1.7224   8.8915  11.1370  11.1370
    11.7253  13.0475  13.0475  13.0851  13.0851  13.2259  13.7465  14.2353
    14.2353  15.1992  15.2255  15.2256  16.4142  16.6267  16.6267  17.7951
    19.0923  19.0923  20.6528  20.6528  20.7660  21.5310  22.9427  24.2896

          k = 0.6333 0.0000 0.0000 (  2771 PWs)   bands (ev):

   -14.7540 -13.9798 -12.1721  -2.2128  -1.2379   8.9288  10.6747  11.2571
    11.6898  12.2264  12.2417  13.5396  13.5996  13.6130  13.9094  14.1894
    14.5158  14.6694  15.0096  15.7865  16.5519  16.6150  17.0876  17.8743
    18.4671  19.6365  20.0839  20.9454  21.1627  21.7885  22.8887  23.7099

          k = 0.6000 0.0000 0.0000 (  2755 PWs)   bands (ev):

   -15.2845 -13.5977 -11.9019  -2.7467  -0.7122   9.0014   9.8974  11.2082
    11.2721  11.3864  11.6385  13.4081  13.6706  14.0301  14.1632  14.2311
    14.8712  14.9516  15.0865  16.3990  16.7781  16.8168  17.6233  17.9774
    17.9965  19.8311  20.2277  21.2343  21.6449  22.2468  22.7792  23.1258

          k = 0.5667 0.0000 0.0000 (  2749 PWs)   bands (ev):

   -15.8490 -13.1841 -11.5456  -3.3084  -0.1473   8.9868   9.0538  10.3078
    10.6862  11.1967  11.3340  12.6750  12.9327  14.5775  14.6720  14.9011
    15.3729  15.5146  15.5762  16.4475  16.6845  17.0624  18.1826  18.2154
    18.2842  20.0630  20.8635  21.2598  21.8362  22.7006  22.8898  22.9049

          k = 0.5333 0.0000 0.0000 (  2759 PWs)   bands (ev):

   -16.4143 -12.7397 -11.1355  -3.8835   0.4547   8.2185   8.6813   9.4306
    10.2579  10.9326  11.0590  12.0824  12.1228  15.1871  15.2889  15.3990
    15.6221  15.9972  16.1697  16.3542  16.4345  17.7754  18.6979  18.8363
    18.8799  20.4120  20.8705  21.5402  21.5737  22.8775  23.2300  23.4201

          k = 0.5000 0.0000 0.0000 (  2739 PWs)   bands (ev):

   -16.9649 -12.2655 -10.6872  -4.4592   1.0913   7.4155   8.0962   8.5989
     9.9154  10.4714  10.8833  11.3348  11.8093  14.8532  15.3487  15.8446
    16.0453  16.3928  16.8909  17.0050  17.0681  18.5363  19.1675  19.4019
    19.5506  20.4923  20.4973  21.2126  22.2521  23.0274  23.8021  24.1286

          k = 0.4667 0.0000 0.0000 (  2733 PWs)   bands (ev):

   -17.4926 -11.7626 -10.2103  -5.0252   1.7589   6.6549   7.4191   7.8174
     9.4209   9.9837  10.5913  10.6858  11.8477  14.3471  14.6728  16.5056
    16.8078  17.2111  17.6496  17.8030  17.8043  19.1514  19.3426  19.6322
    19.8644  20.6290  20.7068  21.2012  22.9907  23.4575  24.3955  24.9222

          k = 0.4333 0.0000 0.0000 (  2729 PWs)   bands (ev):

   -17.9924 -11.2325  -9.7118  -5.5732   2.4538   5.9412   6.7417   7.0879
     8.8331   9.4856   9.9070  10.4756  11.9074  14.0028  14.0946  17.0162
    17.6405  18.0739  18.2541  18.3785  18.6587  19.1106  19.4774  19.5541
    20.1905  21.3467  21.4008  21.7664  23.7427  23.9817  24.6798  25.7805

          k = 0.4000 0.0000 0.0000 (  2721 PWs)   bands (ev):

   -18.4613 -10.6773  -9.1980  -6.0966   3.1709   5.2771   6.0949   6.4114
     8.2331   8.9755   9.3016  10.2573  11.7371  13.3674  14.2297  16.9895
    17.9680  18.4948  18.9434  18.9758  19.0315  19.6198  19.8394  19.9425
    21.0743  22.1790  22.2223  22.5905  24.4256  24.4645  24.4893  26.4489

          k = 0.3667 0.0000 0.0000 (  2725 PWs)   bands (ev):

   -18.8971 -10.0996  -8.6753  -6.5903   3.9042   4.6640   5.4903   5.7882
     7.6563   8.4488   8.7911  10.0316  11.3692  12.7750  14.6302  16.3955
    17.6150  18.3558  19.4915  19.8246  19.9077  20.5800  20.7817  20.7824
    21.9856  22.9821  23.0080  23.5272  24.2283  24.6978  25.2091  26.4193

          k = 0.3333 0.0000 0.0000 (  2711 PWs)   bands (ev):

   -19.2982  -9.5029  -8.1506  -7.0502   4.1028   4.6464   4.9331   5.2188
     7.1174   7.9283   8.3603   9.7959  10.9328  12.2293  15.0357  15.5775
    17.4626  17.8567  20.4344  20.7676  20.8531  21.5937  21.7740  21.7796
    22.9128  23.1966  23.7025  24.5402  24.6288  24.8270  25.8935  26.3722

          k = 0.3000 0.0000 0.0000 (  2717 PWs)   bands (ev):

   -19.6636  -8.8918  -7.6315  -7.4731   3.5942   4.4260   4.7034   5.3883
     6.6230   7.4405   7.9878   9.5441  10.4950  11.7326  14.7020  15.2006
    17.3868  17.6973  21.3523  21.7822  21.8052  22.5155  22.6310  22.8626
    23.2764  23.8458  24.0307  24.9535  25.5728  25.6178  26.5720  26.6221

          k = 0.2667 0.0000 0.0000 (  2713 PWs)   bands (ev):

   -19.9922  -8.2724  -7.8566  -7.1264   3.1385   3.9705   4.2421   6.1191
     6.1768   6.9975   7.6649   9.2664  10.0835  11.2859  13.8430  15.0950
    16.9584  18.3084  22.0948  22.4211  22.6471  22.9154  23.6115  24.0127
    24.0742  24.2197  24.7902  25.1387  26.6607  26.7553  27.3146  27.3308

          k = 0.2333 0.0000 0.0000 (  2701 PWs)   bands (ev):

   -20.2835  -8.1986  -7.6530  -6.6447   2.7360   3.5674   3.8350   5.7807
     6.6040   6.8257   7.3890   8.9500   9.7104  10.8900  13.0494  14.8669
    16.5758  19.0993  22.2277  22.4197  23.3942  23.7585  24.0887  24.7408
    25.2239  25.3968  25.7294  25.7828  27.8051  27.9500  28.1868  28.3356

          k = 0.2000 0.0000 0.0000 (  2703 PWs)   bands (ev):

   -20.5368  -8.4977  -7.0447  -6.1966   2.3870   3.2173   3.4822   5.4360
     6.2618   7.1587   7.4928   8.5833   9.3815  10.5455  12.3606  14.6140
    16.2411  19.8656  22.2062  22.3326  23.4557  24.0058  25.3206  25.8187
    26.4933  26.6438  26.7648  26.8684  28.0260  28.9480  29.2000  29.2055

          k = 0.1667 0.0000 0.0000 (  2691 PWs)   bands (ev):

   -20.7518  -8.7525  -6.4625  -5.7927   2.0915   2.9206   3.1836   5.1435
     5.9719   6.9726   8.1031   8.1662   9.1003  10.2527  11.8031  14.3768
    15.9558  20.3585  22.0349  22.5761  23.1425  24.5194  26.6083  27.0265
    27.7257  27.8197  27.9442  27.9982  28.0607  29.8755  30.3487  30.5037

          k = 0.1333 0.0000 0.0000 (  2685 PWs)   bands (ev):

   -20.9281  -8.9621  -5.9261  -5.4438   1.8498   2.6776   2.9394   4.9036
     5.7347   6.8284   7.7199   8.6382   8.8685  10.0121  11.3830  14.1723
    15.7207  20.5007  21.6613  22.8872  23.3871  24.9909  27.5080  27.9492
    28.3233  29.1588  29.2019  29.3307  29.3483  30.3235  31.3506  31.5644

          k = 0.1000 0.0000 0.0000 (  2671 PWs)   bands (ev):

   -21.0654  -9.1259  -5.4603  -5.1599   1.6618   2.4885   2.7495   4.7168
     5.5502   6.7227   7.2881   8.6873   9.0792   9.8242  11.0873  14.0085
    15.5369  20.4812  21.2992  22.6966  24.4120  25.4578  27.3425  29.3408
    29.6835  29.7927  30.6390  30.7141  30.7309  31.1153  31.1796  31.6569

          k = 0.0667 0.0000 0.0000 (  2657 PWs)   bands (ev):

   -21.1637  -9.2432  -5.0947  -4.9501   1.5275   2.3533   2.6139   4.5832
     5.4184   6.6515   6.9253   8.5575   9.4087   9.6894  10.8948  13.8894
    15.4048  20.4272  21.0064  22.5646  25.4426  25.9196  27.2583  29.8652
    30.7777  30.7982  31.0388  31.1023  32.1289  32.1408  32.1829  32.4759

          k = 0.0333 0.0000 0.0000 (  2635 PWs)   bands (ev):

   -21.2227  -9.3137  -4.8593  -4.8213   1.4469   2.2722   2.5325   4.5029
     5.3394   6.6108   6.6829   8.4794   9.6083   9.6127  10.7871  13.8173
    15.3253  20.3845  20.8180  22.4868  26.2254  26.3122  27.3120  29.8630
    30.1302  30.9814  32.2427  32.3146  32.4795  33.5899  33.6012  33.6588

          k = 0.0000 0.0000 0.0000 (  2641 PWs)   bands (ev):

   -21.2423  -9.3373  -4.7779  -4.7778   1.4201   2.2451   2.5054   4.4762
     5.3131   6.5975   6.5976   8.4534   9.5812   9.6818  10.7524  13.7932
    15.2987  20.3689  20.7531  22.4610  26.4810  26.4810  27.4277  29.8649
    29.8649  30.9571  31.8524  33.4369  33.4369  33.9208  33.9208  34.3515

     Writing output data file ./graphene.save/
 
     init_run     :      1.24s CPU      6.63s WALL (       1 calls)
     electrons    :     16.17s CPU     13.62s WALL (       1 calls)

     Called by init_run:
     wfcinit      :      0.00s CPU      0.12s WALL (       1 calls)
     wfcinit:atom :      0.01s CPU      0.01s WALL (       2 calls)
     wfcinit:wfcr :      0.58s CPU      1.32s WALL (       2 calls)
     potinit      :      0.43s CPU      2.43s WALL (       1 calls)
     hinit0       :      0.65s CPU      2.20s WALL (       1 calls)

     Called by electrons:
     c_bands      :     16.16s CPU     12.77s WALL (       1 calls)
     v_of_rho     :      0.20s CPU      1.05s WALL (       1 calls)
     v_h          :      0.01s CPU      0.01s WALL (       1 calls)
     v_xc         :      0.18s CPU      1.02s WALL (       1 calls)
     newd         :      0.04s CPU      0.14s WALL (       1 calls)
     PAW_pot      :      0.18s CPU      0.80s WALL (       1 calls)

     Called by c_bands:
     init_us_2    :      0.00s CPU      0.01s WALL (       2 calls)
     cegterg      :     12.11s CPU      7.85s WALL (       5 calls)

     Called by sum_band:

     Called by *egterg:
     cdiaghg      :      0.41s CPU      1.11s WALL (      90 calls)
     cegterg:over :      0.71s CPU      0.44s WALL (      88 calls)
     cegterg:upda :      0.45s CPU      0.28s WALL (      88 calls)
     cegterg:last :      0.98s CPU      0.66s WALL (      39 calls)
     h_psi        :      9.65s CPU      6.33s WALL (      95 calls)
     s_psi        :      0.13s CPU      0.07s WALL (      95 calls)
     g_psi        :      0.11s CPU      0.08s WALL (      88 calls)

     Called by h_psi:
     h_psi:calbec :      0.14s CPU      0.23s WALL (      95 calls)
     vloc_psi     :      9.37s CPU      6.00s WALL (      95 calls)
     add_vuspsi   :      0.12s CPU      0.07s WALL (      95 calls)

     General routines
     calbec       :      0.13s CPU      0.20s WALL (      95 calls)
     fft          :      0.08s CPU      1.64s WALL (      13 calls)
     ffts         :      0.00s CPU      0.12s WALL (       1 calls)
     fftw         :      7.88s CPU      4.58s WALL (    2596 calls)
     interpolate  :      0.01s CPU      0.13s WALL (       1 calls)
     davcio       :      0.04s CPU      0.34s WALL (       4 calls)
 
     Parallel routines

     PAW routines
     PAW_pot      :      0.18s CPU      0.80s WALL (       1 calls)
 
     PWSCF        :     19.12s CPU     36.84s WALL

 
   This run was terminated on:  15:38:48   9Jun2022            

=------------------------------------------------------------------------------=
   JOB DONE.
=------------------------------------------------------------------------------=
