
     Program PROJWFC v.7.0 starts on 24Jun2022 at 22:50:39 

     This program is part of the open-source Quantum ESPRESSO suite
     for quantum simulation of materials; please cite
         "P. Giannozzi et al., J. Phys.:Condens. Matter 21 395502 (2009);
         "P. Giannozzi et al., J. Phys.:Condens. Matter 29 465901 (2017);
         "P. Giannozzi et al., J. Chem. Phys. 152 154105 (2020);
          URL http://www.quantum-espresso.org", 
     in publications or presentations arising from this work. More details at
     http://www.quantum-espresso.org/quote

     Parallel version (MPI & OpenMP), running on      28 processor cores
     Number of MPI processes:                28
     Threads/MPI process:                     1

     MPI processes distributed on     1 nodes
     K-points division:     npool     =       7
     R & G space division:  proc/nbgrp/npool/nimage =       4
     54561 MiB available memory on the printing compute node when the environment starts
 

     Reading xml data from directory:

     ./graphene.save/
     file C.pbe-n-kjpaw_psl.1.0.0.UPF: wavefunction(s)  2S 2P renormalized

     IMPORTANT: XC functional enforced from input :
     Exchange-correlation= PBE
                           (   1   4   3   4   0   0   0)
     Any further DFT definition will be discarded
     Please, verify this is what you really want

 
     Parallelization info
     --------------------
     sticks:   dense  smooth     PW     G-vecs:    dense   smooth      PW
     Min         180     118     37                23682    12854    2173
     Max         181     119     38                23699    12877    2184
     Sum         721     475    151                94757    51479    8723
 
     Using Slab Decomposition
 
 ----2D----2D----2D----2D----2D----2D----2D----2D----2D----2D----2D----2D
  The code is running with the 2D cutoff
  Please refer to:
  Sohier, T., Calandra, M., & Mauri, F. (2017), 
  Density functional perturbation theory for gated two-dimensional heterostructu
 res:
  Theoretical developments and application to flexural phonons in graphene.
  Physical Review B, 96(7), 75448. https://doi.org/10.1103/PhysRevB.96.075448
 ----2D----2D----2D----2D----2D----2D----2D----2D----2D----2D----2D----2D

     Check: negative core charge=   -0.000001

     negative rho (up, down):  7.892E-05 0.000E+00

     Gaussian broadening (read from file): ngauss,degauss=   1    0.010000


     Calling projwave .... 

     Subspace diagonalization in iterative solution of the eigenvalue problem:
     one sub-group per band group will be used
     scalapack distributed-memory algorithm (size of sub-group:  2*  2 procs)

     linear algebra parallelized on   4 procs
 
  Problem Sizes 
  natomwfc =            8
  nx       =            4
  nbnd     =           28
  nkstot   =          105
  npwx     =         1703
  nkb      =           16
 

     Atomic states used for projection
     (read from pseudopotential files):

     state #   1: atom   1 (C  ), wfc  1 (l=0 m= 1)
     state #   2: atom   1 (C  ), wfc  2 (l=1 m= 1)
     state #   3: atom   1 (C  ), wfc  2 (l=1 m= 2)
     state #   4: atom   1 (C  ), wfc  2 (l=1 m= 3)
     state #   5: atom   2 (C  ), wfc  1 (l=0 m= 1)
     state #   6: atom   2 (C  ), wfc  2 (l=1 m= 1)
     state #   7: atom   2 (C  ), wfc  2 (l=1 m= 2)
     state #   8: atom   2 (C  ), wfc  2 (l=1 m= 3)

 k =   0.0000000000  0.0000000000  0.0000000000
==== e(   1) =   -23.76252 eV ==== 
     psi = 0.492*[#   1]+0.492*[#   5]
    |psi|^2 = 0.984
==== e(   2) =   -11.85874 eV ==== 
     psi = 0.473*[#   2]+0.473*[#   6]
    |psi|^2 = 0.946
==== e(   3) =    -7.30058 eV ==== 
     psi = 0.467*[#   4]+0.467*[#   8]+0.031*[#   3]+0.031*[#   7]
    |psi|^2 = 0.997
==== e(   4) =    -7.30058 eV ==== 
     psi = 0.467*[#   3]+0.467*[#   7]+0.031*[#   4]+0.031*[#   8]
    |psi|^2 = 0.997
==== e(   5) =    -0.97012 eV ==== 
     psi = 0.004*[#   1]+0.004*[#   5]
    |psi|^2 = 0.007
==== e(   6) =    -0.09053 eV ==== 
     psi = 0.013*[#   2]+0.013*[#   6]
    |psi|^2 = 0.027
==== e(   7) =     1.60053 eV ==== 
     psi = 0.001*[#   1]+0.001*[#   5]
    |psi|^2 = 0.003
==== e(   8) =     2.52023 eV ==== 
     psi = 0.008*[#   2]+0.008*[#   6]
    |psi|^2 = 0.015
==== e(   9) =     4.07199 eV ==== 
     psi = 0.475*[#   4]+0.475*[#   8]
    |psi|^2 = 0.951
==== e(  10) =     4.07199 eV ==== 
     psi = 0.475*[#   3]+0.475*[#   7]
    |psi|^2 = 0.951
==== e(  11) =     5.11752 eV ==== 
     psi = 0.001*[#   1]+0.001*[#   5]
    |psi|^2 = 0.002
==== e(  12) =     6.80347 eV ==== 
     psi = 0.003*[#   2]+0.003*[#   6]
    |psi|^2 = 0.007
==== e(  13) =     7.15762 eV ==== 
     psi = 0.498*[#   2]+0.498*[#   6]
    |psi|^2 = 0.995
==== e(  14) =     8.22670 eV ==== 
     psi = 0.489*[#   1]+0.489*[#   5]
    |psi|^2 = 0.979
==== e(  15) =     9.68702 eV ==== 
 
    |psi|^2 = 0.001
==== e(  16) =    12.37814 eV ==== 
     psi = 0.001*[#   2]+0.001*[#   6]
    |psi|^2 = 0.003
==== e(  17) =    15.21982 eV ==== 
 
    |psi|^2 = 0.001
==== e(  18) =    18.22710 eV ==== 
 
    |psi|^2 = 0.001
==== e(  19) =    19.08428 eV ==== 
 
    |psi|^2 = 0.001
==== e(  20) =    21.98287 eV ==== 
 
    |psi|^2 = 0.000
==== e(  21) =    23.95080 eV ==== 
 
    |psi|^2 = 0.000
==== e(  22) =    23.95080 eV ==== 
 
    |psi|^2 = 0.000
==== e(  23) =    25.86517 eV ==== 
 
    |psi|^2 = 0.000
==== e(  24) =    27.33762 eV ==== 
 
    |psi|^2 = 0.000
==== e(  25) =    27.33762 eV ==== 
 
    |psi|^2 = 0.000
==== e(  26) =    29.97727 eV ==== 
 
    |psi|^2 = 0.000
==== e(  27) =    30.20878 eV ==== 
 
    |psi|^2 = 0.000
==== e(  28) =    30.93607 eV ==== 
 
    |psi|^2 = 0.000

 k =   0.0125000000  0.0072168784  0.0000000000
==== e(   1) =   -23.75883 eV ==== 
     psi = 0.491*[#   1]+0.491*[#   5]
    |psi|^2 = 0.984
==== e(   2) =   -11.85433 eV ==== 
     psi = 0.473*[#   2]+0.473*[#   6]
    |psi|^2 = 0.946
==== e(   3) =    -7.31599 eV ==== 
     psi = 0.374*[#   3]+0.374*[#   7]+0.125*[#   4]+0.125*[#   8]
    |psi|^2 = 0.997
==== e(   4) =    -7.30874 eV ==== 
     psi = 0.374*[#   4]+0.374*[#   8]+0.125*[#   3]+0.125*[#   7]
    |psi|^2 = 0.997
==== e(   5) =    -0.96512 eV ==== 
     psi = 0.003*[#   1]+0.003*[#   5]
    |psi|^2 = 0.008
==== e(   6) =    -0.08547 eV ==== 
     psi = 0.013*[#   2]+0.013*[#   6]
    |psi|^2 = 0.027
==== e(   7) =     1.60556 eV ==== 
     psi = 0.001*[#   1]+0.001*[#   5]
    |psi|^2 = 0.003
==== e(   8) =     2.52523 eV ==== 
     psi = 0.008*[#   2]+0.008*[#   6]
    |psi|^2 = 0.015
==== e(   9) =     4.07422 eV ==== 
     psi = 0.356*[#   3]+0.356*[#   7]+0.119*[#   4]+0.119*[#   8]
    |psi|^2 = 0.950
==== e(  10) =     4.08819 eV ==== 
     psi = 0.356*[#   4]+0.356*[#   8]+0.119*[#   3]+0.119*[#   7]
    |psi|^2 = 0.950
==== e(  11) =     5.12273 eV ==== 
     psi = 0.001*[#   1]+0.001*[#   5]
    |psi|^2 = 0.003
==== e(  12) =     6.80831 eV ==== 
     psi = 0.003*[#   2]+0.003*[#   6]
    |psi|^2 = 0.007
==== e(  13) =     7.14463 eV ==== 
     psi = 0.498*[#   2]+0.498*[#   6]
    |psi|^2 = 0.995
==== e(  14) =     8.23315 eV ==== 
     psi = 0.489*[#   1]+0.489*[#   5]
    |psi|^2 = 0.979
==== e(  15) =     9.69206 eV ==== 
 
    |psi|^2 = 0.001
==== e(  16) =    12.38256 eV ==== 
     psi = 0.001*[#   2]+0.001*[#   6]
    |psi|^2 = 0.003
==== e(  17) =    15.22480 eV ==== 
 
    |psi|^2 = 0.001
==== e(  18) =    18.23930 eV ==== 
 
    |psi|^2 = 0.001
==== e(  19) =    19.08643 eV ==== 
 
    |psi|^2 = 0.001
==== e(  20) =    21.98770 eV ==== 
 
    |psi|^2 = 0.000
==== e(  21) =    23.90790 eV ==== 
 
    |psi|^2 = 0.000
==== e(  22) =    23.91593 eV ==== 
 
    |psi|^2 = 0.000
==== e(  23) =    25.79359 eV ==== 
 
    |psi|^2 = 0.000
==== e(  24) =    27.38948 eV ==== 
 
    |psi|^2 = 0.000
==== e(  25) =    27.41156 eV ==== 
 
    |psi|^2 = 0.000
==== e(  26) =    30.03558 eV ==== 
 
    |psi|^2 = 0.000
==== e(  27) =    30.21293 eV ==== 
 
    |psi|^2 = 0.000
==== e(  28) =    30.53643 eV ==== 
 
    |psi|^2 = 0.002

 k =   0.0250000000  0.0144337567  0.0000000000
==== e(   1) =   -23.74777 eV ==== 
     psi = 0.489*[#   1]+0.489*[#   5]+0.002*[#   3]+0.002*[#   7]
    |psi|^2 = 0.984
==== e(   2) =   -11.84109 eV ==== 
     psi = 0.473*[#   2]+0.473*[#   6]
    |psi|^2 = 0.946
==== e(   3) =    -7.36201 eV ==== 
     psi = 0.373*[#   3]+0.373*[#   7]+0.124*[#   4]+0.124*[#   8]+0.002*[#   1]
          +0.002*[#   5]
    |psi|^2 = 0.997
==== e(   4) =    -7.33304 eV ==== 
     psi = 0.374*[#   4]+0.374*[#   8]+0.125*[#   3]+0.125*[#   7]
    |psi|^2 = 0.997
==== e(   5) =    -0.95012 eV ==== 
     psi = 0.003*[#   1]+0.003*[#   5]
    |psi|^2 = 0.009
==== e(   6) =    -0.07032 eV ==== 
     psi = 0.013*[#   2]+0.013*[#   6]
    |psi|^2 = 0.027
==== e(   7) =     1.62065 eV ==== 
     psi = 0.001*[#   1]+0.001*[#   5]
    |psi|^2 = 0.003
==== e(   8) =     2.54024 eV ==== 
     psi = 0.008*[#   2]+0.008*[#   6]
    |psi|^2 = 0.015
==== e(   9) =     4.08064 eV ==== 
     psi = 0.353*[#   3]+0.353*[#   7]+0.118*[#   4]+0.118*[#   8]+0.003*[#   1]
          +0.003*[#   5]
    |psi|^2 = 0.947
==== e(  10) =     4.13659 eV ==== 
     psi = 0.356*[#   4]+0.356*[#   8]+0.119*[#   3]+0.119*[#   7]
    |psi|^2 = 0.950
==== e(  11) =     5.13835 eV ==== 
 
    |psi|^2 = 0.004
==== e(  12) =     6.82282 eV ==== 
     psi = 0.003*[#   2]+0.003*[#   6]
    |psi|^2 = 0.007
==== e(  13) =     7.10578 eV ==== 
     psi = 0.497*[#   2]+0.497*[#   6]
    |psi|^2 = 0.995
==== e(  14) =     8.25263 eV ==== 
     psi = 0.488*[#   1]+0.488*[#   5]+0.001*[#   3]+0.001*[#   7]
    |psi|^2 = 0.978
==== e(  15) =     9.70717 eV ==== 
 
    |psi|^2 = 0.001
==== e(  16) =    12.39579 eV ==== 
     psi = 0.001*[#   2]+0.001*[#   6]
    |psi|^2 = 0.003
==== e(  17) =    15.23973 eV ==== 
 
    |psi|^2 = 0.001
==== e(  18) =    18.27568 eV ==== 
 
    |psi|^2 = 0.001
==== e(  19) =    19.09262 eV ==== 
 
    |psi|^2 = 0.001
==== e(  20) =    22.00219 eV ==== 
 
    |psi|^2 = 0.000
==== e(  21) =    23.78648 eV ==== 
 
    |psi|^2 = 0.000
==== e(  22) =    23.80513 eV ==== 
 
    |psi|^2 = 0.001
==== e(  23) =    25.63849 eV ==== 
 
    |psi|^2 = 0.000
==== e(  24) =    27.53767 eV ==== 
 
    |psi|^2 = 0.000
==== e(  25) =    27.57879 eV ==== 
 
    |psi|^2 = 0.000
==== e(  26) =    29.87101 eV ==== 
 
    |psi|^2 = 0.003
==== e(  27) =    30.20938 eV ==== 
 
    |psi|^2 = 0.000
==== e(  28) =    30.22682 eV ==== 
 
    |psi|^2 = 0.000

 k =   0.0375000000  0.0216506351  0.0000000000
==== e(   1) =   -23.72934 eV ==== 
     psi = 0.486*[#   1]+0.486*[#   5]+0.005*[#   3]+0.005*[#   7]+0.002*[#   4]
          +0.002*[#   8]
    |psi|^2 = 0.984
==== e(   2) =   -11.81904 eV ==== 
     psi = 0.473*[#   2]+0.473*[#   6]
    |psi|^2 = 0.947
==== e(   3) =    -7.43793 eV ==== 
     psi = 0.371*[#   3]+0.371*[#   7]+0.124*[#   4]+0.124*[#   8]+0.004*[#   1]
          +0.004*[#   5]
    |psi|^2 = 0.997
==== e(   4) =    -7.37300 eV ==== 
     psi = 0.374*[#   4]+0.374*[#   8]+0.125*[#   3]+0.125*[#   7]
    |psi|^2 = 0.997
==== e(   5) =    -0.92512 eV ==== 
     psi = 0.003*[#   1]+0.003*[#   5]+0.002*[#   3]+0.002*[#   7]
    |psi|^2 = 0.011
==== e(   6) =    -0.04506 eV ==== 
     psi = 0.013*[#   2]+0.013*[#   6]
    |psi|^2 = 0.026
==== e(   7) =     1.64580 eV ==== 
     psi = 0.001*[#   1]+0.001*[#   5]
    |psi|^2 = 0.003
==== e(   8) =     2.56525 eV ==== 
     psi = 0.008*[#   2]+0.008*[#   6]
    |psi|^2 = 0.015
==== e(   9) =     4.09049 eV ==== 
     psi = 0.348*[#   3]+0.348*[#   7]+0.116*[#   4]+0.116*[#   8]+0.007*[#   1]
          +0.007*[#   5]
    |psi|^2 = 0.942
==== e(  10) =     4.21670 eV ==== 
     psi = 0.356*[#   4]+0.356*[#   8]+0.119*[#   3]+0.119*[#   7]
    |psi|^2 = 0.950
==== e(  11) =     5.16435 eV ==== 
     psi = 0.001*[#   3]+0.001*[#   7]
    |psi|^2 = 0.005
==== e(  12) =     6.84699 eV ==== 
     psi = 0.003*[#   2]+0.003*[#   6]
    |psi|^2 = 0.007
==== e(  13) =     7.04142 eV ==== 
     psi = 0.497*[#   2]+0.497*[#   6]
    |psi|^2 = 0.994
==== e(  14) =     8.28551 eV ==== 
     psi = 0.485*[#   1]+0.485*[#   5]+0.003*[#   3]+0.003*[#   7]
    |psi|^2 = 0.978
==== e(  15) =     9.73235 eV ==== 
 
    |psi|^2 = 0.002
==== e(  16) =    12.41780 eV ==== 
     psi = 0.001*[#   2]+0.001*[#   6]
    |psi|^2 = 0.003
==== e(  17) =    15.26458 eV ==== 
 
    |psi|^2 = 0.001
==== e(  18) =    18.33568 eV ==== 
 
    |psi|^2 = 0.002
==== e(  19) =    19.10212 eV ==== 
 
    |psi|^2 = 0.001
==== e(  20) =    22.02636 eV ==== 
 
    |psi|^2 = 0.000
==== e(  21) =    23.60373 eV ==== 
 
    |psi|^2 = 0.000
==== e(  22) =    23.60792 eV ==== 
 
    |psi|^2 = 0.002
==== e(  23) =    25.49278 eV ==== 
 
    |psi|^2 = 0.000
==== e(  24) =    27.75732 eV ==== 
 
    |psi|^2 = 0.000
==== e(  25) =    27.76451 eV ==== 
 
    |psi|^2 = 0.000
==== e(  26) =    29.16330 eV ==== 
 
    |psi|^2 = 0.003
==== e(  27) =    30.00744 eV ==== 
 
    |psi|^2 = 0.002
==== e(  28) =    30.24764 eV ==== 
 
    |psi|^2 = 0.000

 k =   0.0500000000  0.0288675135  0.0000000000
==== e(   1) =   -23.70354 eV ==== 
     psi = 0.481*[#   1]+0.481*[#   5]+0.008*[#   3]+0.008*[#   7]+0.003*[#   4]
          +0.003*[#   8]
    |psi|^2 = 0.984
==== e(   2) =   -11.78818 eV ==== 
     psi = 0.474*[#   2]+0.474*[#   6]
    |psi|^2 = 0.948
==== e(   3) =    -7.54269 eV ==== 
     psi = 0.369*[#   3]+0.369*[#   7]+0.123*[#   4]+0.123*[#   8]+0.006*[#   1]
          +0.006*[#   5]
    |psi|^2 = 0.997
==== e(   4) =    -7.42786 eV ==== 
     psi = 0.374*[#   4]+0.374*[#   8]+0.125*[#   3]+0.125*[#   7]
    |psi|^2 = 0.997
==== e(   5) =    -0.89011 eV ==== 
     psi = 0.003*[#   3]+0.003*[#   7]+0.003*[#   1]+0.003*[#   5]
    |psi|^2 = 0.013
==== e(   6) =    -0.00971 eV ==== 
     psi = 0.013*[#   2]+0.013*[#   6]
    |psi|^2 = 0.026
==== e(   7) =     1.68102 eV ==== 
     psi = 0.001*[#   1]+0.001*[#   5]
    |psi|^2 = 0.003
==== e(   8) =     2.60025 eV ==== 
     psi = 0.007*[#   2]+0.007*[#   6]
    |psi|^2 = 0.015
==== e(   9) =     4.10259 eV ==== 
     psi = 0.342*[#   3]+0.342*[#   7]+0.114*[#   4]+0.114*[#   8]+0.013*[#   1]
          +0.013*[#   5]
    |psi|^2 = 0.937
==== e(  10) =     4.32769 eV ==== 
     psi = 0.356*[#   4]+0.356*[#   8]+0.119*[#   3]+0.119*[#   7]
    |psi|^2 = 0.949
==== e(  11) =     5.20064 eV ==== 
     psi = 0.002*[#   3]+0.002*[#   7]
    |psi|^2 = 0.007
==== e(  12) =     6.88071 eV ==== 
     psi = 0.004*[#   2]+0.004*[#   6]
    |psi|^2 = 0.008
==== e(  13) =     6.95218 eV ==== 
     psi = 0.496*[#   2]+0.496*[#   6]
    |psi|^2 = 0.991
==== e(  14) =     8.33233 eV ==== 
     psi = 0.482*[#   1]+0.482*[#   5]+0.005*[#   3]+0.005*[#   7]+0.002*[#   4]
          +0.002*[#   8]
    |psi|^2 = 0.978
==== e(  15) =     9.76757 eV ==== 
 
    |psi|^2 = 0.002
==== e(  16) =    12.44850 eV ==== 
     psi = 0.001*[#   2]+0.001*[#   6]
    |psi|^2 = 0.003
==== e(  17) =    15.29931 eV ==== 
 
    |psi|^2 = 0.001
==== e(  18) =    18.41830 eV ==== 
 
    |psi|^2 = 0.003
==== e(  19) =    19.11356 eV ==== 
 
    |psi|^2 = 0.001
==== e(  20) =    22.06026 eV ==== 
 
    |psi|^2 = 0.000
==== e(  21) =    23.32719 eV ==== 
     psi = 0.001*[#   2]+0.001*[#   6]
    |psi|^2 = 0.003
==== e(  22) =    23.37841 eV ==== 
 
    |psi|^2 = 0.000
==== e(  23) =    25.40383 eV ==== 
 
    |psi|^2 = 0.001
==== e(  24) =    27.90393 eV ==== 
 
    |psi|^2 = 0.000
==== e(  25) =    28.05023 eV ==== 
 
    |psi|^2 = 0.000
==== e(  26) =    28.44558 eV ==== 
     psi = 0.001*[#   1]+0.001*[#   5]
    |psi|^2 = 0.003
==== e(  27) =    29.64710 eV ==== 
 
    |psi|^2 = 0.002
==== e(  28) =    29.95945 eV ==== 
 
    |psi|^2 = 0.000

 k =   0.0625000000  0.0360843918  0.0000000000
==== e(   1) =   -23.67038 eV ==== 
     psi = 0.475*[#   1]+0.475*[#   5]+0.012*[#   3]+0.012*[#   7]+0.004*[#   4]
          +0.004*[#   8]
    |psi|^2 = 0.984
==== e(   2) =   -11.74853 eV ==== 
     psi = 0.474*[#   2]+0.474*[#   6]
    |psi|^2 = 0.949
==== e(   3) =    -7.67484 eV ==== 
     psi = 0.367*[#   3]+0.367*[#   7]+0.122*[#   4]+0.122*[#   8]+0.010*[#   1]
          +0.010*[#   5]
    |psi|^2 = 0.997
==== e(   4) =    -7.49658 eV ==== 
     psi = 0.374*[#   4]+0.374*[#   8]+0.125*[#   3]+0.125*[#   7]
    |psi|^2 = 0.997
==== e(   5) =    -0.84510 eV ==== 
     psi = 0.004*[#   3]+0.004*[#   7]+0.002*[#   1]+0.002*[#   5]+0.001*[#   4]
          +0.001*[#   8]
    |psi|^2 = 0.016
==== e(   6) =     0.03574 eV ==== 
     psi = 0.013*[#   2]+0.013*[#   6]
    |psi|^2 = 0.025
==== e(   7) =     1.72630 eV ==== 
     psi = 0.001*[#   1]+0.001*[#   5]
    |psi|^2 = 0.003
==== e(   8) =     2.64525 eV ==== 
     psi = 0.007*[#   2]+0.007*[#   6]
    |psi|^2 = 0.015
==== e(   9) =     4.11549 eV ==== 
     psi = 0.334*[#   3]+0.334*[#   7]+0.111*[#   4]+0.111*[#   8]+0.020*[#   1]
          +0.020*[#   5]
    |psi|^2 = 0.930
==== e(  10) =     4.46847 eV ==== 
     psi = 0.356*[#   4]+0.356*[#   8]+0.119*[#   3]+0.119*[#   7]
    |psi|^2 = 0.948
==== e(  11) =     5.24715 eV ==== 
     psi = 0.003*[#   3]+0.003*[#   7]+0.001*[#   4]+0.001*[#   8]
    |psi|^2 = 0.010
==== e(  12) =     6.83821 eV ==== 
     psi = 0.494*[#   2]+0.494*[#   6]
    |psi|^2 = 0.987
==== e(  13) =     6.92456 eV ==== 
     psi = 0.005*[#   2]+0.005*[#   6]
    |psi|^2 = 0.010
==== e(  14) =     8.39374 eV ==== 
     psi = 0.477*[#   1]+0.477*[#   5]+0.008*[#   3]+0.008*[#   7]+0.003*[#   4]
          +0.003*[#   8]
    |psi|^2 = 0.977
==== e(  15) =     9.81282 eV ==== 
 
    |psi|^2 = 0.002
==== e(  16) =    12.48779 eV ==== 
     psi = 0.001*[#   2]+0.001*[#   6]
    |psi|^2 = 0.003
==== e(  17) =    15.34385 eV ==== 
 
    |psi|^2 = 0.001
==== e(  18) =    18.52215 eV ==== 
 
    |psi|^2 = 0.004
==== e(  19) =    19.12478 eV ==== 
 
    |psi|^2 = 0.001
==== e(  20) =    22.10394 eV ==== 
 
    |psi|^2 = 0.000
==== e(  21) =    22.98463 eV ==== 
     psi = 0.002*[#   2]+0.002*[#   6]
    |psi|^2 = 0.004
==== e(  22) =    23.12594 eV ==== 
 
    |psi|^2 = 0.000
==== e(  23) =    25.37588 eV ==== 
 
    |psi|^2 = 0.001
==== e(  24) =    27.72837 eV ==== 
     psi = 0.001*[#   1]+0.001*[#   5]
    |psi|^2 = 0.004
==== e(  25) =    28.00026 eV ==== 
 
    |psi|^2 = 0.001
==== e(  26) =    28.37744 eV ==== 
 
    |psi|^2 = 0.000
==== e(  27) =    29.26120 eV ==== 
 
    |psi|^2 = 0.000
==== e(  28) =    29.29355 eV ==== 
 
    |psi|^2 = 0.002

 k =   0.0750000000  0.0433012702  0.0000000000
==== e(   1) =   -23.62986 eV ==== 
     psi = 0.469*[#   1]+0.469*[#   5]+0.017*[#   3]+0.017*[#   7]+0.006*[#   4]
          +0.006*[#   8]
    |psi|^2 = 0.984
==== e(   2) =   -11.70012 eV ==== 
     psi = 0.475*[#   2]+0.475*[#   6]
    |psi|^2 = 0.950
==== e(   3) =    -7.83268 eV ==== 
     psi = 0.364*[#   3]+0.364*[#   7]+0.121*[#   4]+0.121*[#   8]+0.014*[#   1]
          +0.014*[#   5]
    |psi|^2 = 0.997
==== e(   4) =    -7.57797 eV ==== 
     psi = 0.374*[#   4]+0.374*[#   8]+0.125*[#   3]+0.125*[#   7]
    |psi|^2 = 0.997
==== e(   5) =    -0.79009 eV ==== 
     psi = 0.006*[#   3]+0.006*[#   7]+0.002*[#   4]+0.002*[#   8]+0.002*[#   1]
          +0.002*[#   5]
    |psi|^2 = 0.019
==== e(   6) =     0.09127 eV ==== 
     psi = 0.012*[#   2]+0.012*[#   6]
    |psi|^2 = 0.025
==== e(   7) =     1.78165 eV ==== 
 
    |psi|^2 = 0.004
==== e(   8) =     2.70022 eV ==== 
     psi = 0.007*[#   2]+0.007*[#   6]
    |psi|^2 = 0.014
==== e(   9) =     4.12762 eV ==== 
     psi = 0.325*[#   3]+0.325*[#   7]+0.108*[#   4]+0.108*[#   8]+0.028*[#   1]
          +0.028*[#   5]
    |psi|^2 = 0.923
==== e(  10) =     4.63774 eV ==== 
     psi = 0.355*[#   4]+0.355*[#   8]+0.118*[#   3]+0.118*[#   7]
    |psi|^2 = 0.947
==== e(  11) =     5.30375 eV ==== 
     psi = 0.004*[#   3]+0.004*[#   7]+0.001*[#   4]+0.001*[#   8]
    |psi|^2 = 0.012
==== e(  12) =     6.70137 eV ==== 
     psi = 0.494*[#   2]+0.494*[#   6]
    |psi|^2 = 0.988
==== e(  13) =     6.97757 eV ==== 
     psi = 0.004*[#   2]+0.004*[#   6]
    |psi|^2 = 0.007
==== e(  14) =     8.47037 eV ==== 
     psi = 0.471*[#   1]+0.471*[#   5]+0.012*[#   3]+0.012*[#   7]+0.004*[#   4]
          +0.004*[#   8]
    |psi|^2 = 0.976
==== e(  15) =     9.86807 eV ==== 
 
    |psi|^2 = 0.002
==== e(  16) =    12.53553 eV ==== 
     psi = 0.001*[#   2]+0.001*[#   6]
    |psi|^2 = 0.003
==== e(  17) =    15.39815 eV ==== 
 
    |psi|^2 = 0.001
==== e(  18) =    18.64536 eV ==== 
     psi = 0.001*[#   1]+0.001*[#   3]+0.001*[#   5]+0.001*[#   7]
    |psi|^2 = 0.005
==== e(  19) =    19.13243 eV ==== 
 
    |psi|^2 = 0.001
==== e(  20) =    22.15747 eV ==== 
 
    |psi|^2 = 0.000
==== e(  21) =    22.60867 eV ==== 
     psi = 0.002*[#   2]+0.002*[#   6]
    |psi|^2 = 0.005
==== e(  22) =    22.85743 eV ==== 
 
    |psi|^2 = 0.000
==== e(  23) =    25.39447 eV ==== 
 
    |psi|^2 = 0.002
==== e(  24) =    27.01645 eV ==== 
     psi = 0.001*[#   1]+0.001*[#   5]
    |psi|^2 = 0.004
==== e(  25) =    27.99562 eV ==== 
 
    |psi|^2 = 0.001
==== e(  26) =    28.63086 eV ==== 
 
    |psi|^2 = 0.000
==== e(  27) =    28.73069 eV ==== 
 
    |psi|^2 = 0.000
==== e(  28) =    28.94818 eV ==== 
 
    |psi|^2 = 0.002

 k =   0.0875000000  0.0505181486  0.0000000000
==== e(   1) =   -23.58201 eV ==== 
     psi = 0.461*[#   1]+0.461*[#   5]+0.023*[#   3]+0.023*[#   7]+0.008*[#   4]
          +0.008*[#   8]
    |psi|^2 = 0.984
==== e(   2) =   -11.64297 eV ==== 
     psi = 0.476*[#   2]+0.476*[#   6]
    |psi|^2 = 0.951
==== e(   3) =    -8.01433 eV ==== 
     psi = 0.360*[#   3]+0.360*[#   7]+0.120*[#   4]+0.120*[#   8]+0.018*[#   1]
          +0.018*[#   5]
    |psi|^2 = 0.997
==== e(   4) =    -7.67070 eV ==== 
     psi = 0.374*[#   4]+0.374*[#   8]+0.125*[#   3]+0.125*[#   7]
    |psi|^2 = 0.997
==== e(   5) =    -0.72507 eV ==== 
     psi = 0.007*[#   3]+0.007*[#   7]+0.002*[#   4]+0.002*[#   8]+0.001*[#   1]
          +0.001*[#   5]
    |psi|^2 = 0.022
==== e(   6) =     0.15689 eV ==== 
     psi = 0.012*[#   2]+0.012*[#   6]
    |psi|^2 = 0.024
==== e(   7) =     1.84706 eV ==== 
 
    |psi|^2 = 0.004
==== e(   8) =     2.76515 eV ==== 
     psi = 0.007*[#   2]+0.007*[#   6]
    |psi|^2 = 0.014
==== e(   9) =     4.13740 eV ==== 
     psi = 0.315*[#   3]+0.315*[#   7]+0.105*[#   4]+0.105*[#   8]+0.038*[#   1]
          +0.038*[#   5]
    |psi|^2 = 0.916
==== e(  10) =     4.83407 eV ==== 
     psi = 0.355*[#   4]+0.355*[#   8]+0.118*[#   3]+0.118*[#   7]
    |psi|^2 = 0.946
==== e(  11) =     5.37034 eV ==== 
     psi = 0.005*[#   3]+0.005*[#   7]+0.002*[#   4]+0.002*[#   8]
    |psi|^2 = 0.014
==== e(  12) =     6.54213 eV ==== 
     psi = 0.493*[#   2]+0.493*[#   6]
    |psi|^2 = 0.986
==== e(  13) =     7.04027 eV ==== 
     psi = 0.004*[#   2]+0.004*[#   6]
    |psi|^2 = 0.007
==== e(  14) =     8.56270 eV ==== 
     psi = 0.464*[#   1]+0.464*[#   5]+0.018*[#   3]+0.018*[#   7]+0.006*[#   4]
          +0.006*[#   8]
    |psi|^2 = 0.974
==== e(  15) =     9.93329 eV ==== 
 
    |psi|^2 = 0.002
==== e(  16) =    12.59154 eV ==== 
     psi = 0.001*[#   2]+0.001*[#   6]
    |psi|^2 = 0.003
==== e(  17) =    15.46212 eV ==== 
 
    |psi|^2 = 0.001
==== e(  18) =    18.78557 eV ==== 
     psi = 0.002*[#   3]+0.002*[#   7]+0.001*[#   1]+0.001*[#   5]
    |psi|^2 = 0.007
==== e(  19) =    19.13146 eV ==== 
 
    |psi|^2 = 0.001
==== e(  20) =    22.22096 eV ==== 
 
    |psi|^2 = 0.000
==== e(  21) =    22.22441 eV ==== 
     psi = 0.003*[#   2]+0.003*[#   6]
    |psi|^2 = 0.006
==== e(  22) =    22.58050 eV ==== 
 
    |psi|^2 = 0.000
==== e(  23) =    25.44216 eV ==== 
     psi = 0.001*[#   2]+0.001*[#   6]
    |psi|^2 = 0.003
==== e(  24) =    26.31269 eV ==== 
     psi = 0.002*[#   1]+0.002*[#   5]
    |psi|^2 = 0.004
==== e(  25) =    27.63151 eV ==== 
 
    |psi|^2 = 0.000
==== e(  26) =    28.34102 eV ==== 
 
    |psi|^2 = 0.001
==== e(  27) =    28.61160 eV ==== 
 
    |psi|^2 = 0.003
==== e(  28) =    28.86198 eV ==== 
 
    |psi|^2 = 0.002

 k =   0.1000000000  0.0577350269  0.0000000000
==== e(   1) =   -23.52682 eV ==== 
     psi = 0.453*[#   1]+0.453*[#   5]+0.029*[#   3]+0.029*[#   7]+0.010*[#   4]
          +0.010*[#   8]
    |psi|^2 = 0.983
==== e(   2) =   -11.57712 eV ==== 
     psi = 0.476*[#   2]+0.476*[#   6]
    |psi|^2 = 0.953
==== e(   3) =    -8.21779 eV ==== 
     psi = 0.356*[#   3]+0.356*[#   7]+0.119*[#   4]+0.119*[#   8]+0.023*[#   1]
          +0.023*[#   5]
    |psi|^2 = 0.997
==== e(   4) =    -7.77333 eV ==== 
     psi = 0.374*[#   4]+0.374*[#   8]+0.125*[#   3]+0.125*[#   7]
    |psi|^2 = 0.997
==== e(   5) =    -0.65005 eV ==== 
     psi = 0.009*[#   3]+0.009*[#   7]+0.003*[#   4]+0.003*[#   8]
    |psi|^2 = 0.026
==== e(   6) =     0.23257 eV ==== 
     psi = 0.012*[#   2]+0.012*[#   6]
    |psi|^2 = 0.024
==== e(   7) =     1.92254 eV ==== 
     psi = 0.001*[#   3]+0.001*[#   7]
    |psi|^2 = 0.004
==== e(   8) =     2.84003 eV ==== 
     psi = 0.007*[#   2]+0.007*[#   6]
    |psi|^2 = 0.013
==== e(   9) =     4.14346 eV ==== 
     psi = 0.304*[#   3]+0.304*[#   7]+0.101*[#   4]+0.101*[#   8]+0.050*[#   1]
          +0.050*[#   5]
    |psi|^2 = 0.909
==== e(  10) =     5.05589 eV ==== 
     psi = 0.354*[#   4]+0.354*[#   8]+0.118*[#   3]+0.118*[#   7]
    |psi|^2 = 0.945
==== e(  11) =     5.44679 eV ==== 
     psi = 0.006*[#   3]+0.006*[#   7]+0.002*[#   4]+0.002*[#   8]
    |psi|^2 = 0.016
==== e(  12) =     6.36173 eV ==== 
     psi = 0.492*[#   2]+0.492*[#   6]
    |psi|^2 = 0.984
==== e(  13) =     7.11255 eV ==== 
     psi = 0.003*[#   2]+0.003*[#   6]
    |psi|^2 = 0.007
==== e(  14) =     8.67100 eV ==== 
     psi = 0.455*[#   1]+0.455*[#   5]+0.023*[#   3]+0.023*[#   7]+0.008*[#   4]
          +0.008*[#   8]
    |psi|^2 = 0.972
==== e(  15) =    10.00845 eV ==== 
 
    |psi|^2 = 0.003
==== e(  16) =    12.65560 eV ==== 
     psi = 0.001*[#   2]+0.001*[#   6]
    |psi|^2 = 0.003
==== e(  17) =    15.53570 eV ==== 
 
    |psi|^2 = 0.001
==== e(  18) =    18.93976 eV ==== 
     psi = 0.002*[#   3]+0.002*[#   7]+0.002*[#   1]+0.002*[#   5]
    |psi|^2 = 0.009
==== e(  19) =    19.11437 eV ==== 
 
    |psi|^2 = 0.001
==== e(  20) =    21.85266 eV ==== 
     psi = 0.003*[#   2]+0.003*[#   6]
    |psi|^2 = 0.007
==== e(  21) =    22.29450 eV ==== 
 
    |psi|^2 = 0.000
==== e(  22) =    22.30030 eV ==== 
 
    |psi|^2 = 0.000
==== e(  23) =    25.50007 eV ==== 
     psi = 0.002*[#   2]+0.002*[#   6]
    |psi|^2 = 0.004
==== e(  24) =    25.61936 eV ==== 
     psi = 0.002*[#   1]+0.002*[#   5]
    |psi|^2 = 0.005
==== e(  25) =    27.00304 eV ==== 
 
    |psi|^2 = 0.000
==== e(  26) =    28.15859 eV ==== 
 
    |psi|^2 = 0.002
==== e(  27) =    28.28417 eV ==== 
 
    |psi|^2 = 0.003
==== e(  28) =    28.30613 eV ==== 
 
    |psi|^2 = 0.001

 k =   0.1125000000  0.0649519053  0.0000000000
==== e(   1) =   -23.46431 eV ==== 
     psi = 0.444*[#   1]+0.444*[#   5]+0.035*[#   3]+0.035*[#   7]+0.012*[#   4]
          +0.012*[#   8]
    |psi|^2 = 0.983
==== e(   2) =   -11.50262 eV ==== 
     psi = 0.477*[#   2]+0.477*[#   6]
    |psi|^2 = 0.954
==== e(   3) =    -8.44102 eV ==== 
     psi = 0.352*[#   3]+0.352*[#   7]+0.117*[#   4]+0.117*[#   8]+0.029*[#   1]
          +0.029*[#   5]
    |psi|^2 = 0.996
==== e(   4) =    -7.88445 eV ==== 
     psi = 0.374*[#   4]+0.374*[#   8]+0.125*[#   3]+0.125*[#   7]
    |psi|^2 = 0.997
==== e(   5) =    -0.56502 eV ==== 
     psi = 0.010*[#   3]+0.010*[#   7]+0.003*[#   4]+0.003*[#   8]
    |psi|^2 = 0.029
==== e(   6) =     0.31831 eV ==== 
     psi = 0.011*[#   2]+0.011*[#   6]
    |psi|^2 = 0.023
==== e(   7) =     2.00807 eV ==== 
     psi = 0.001*[#   3]+0.001*[#   7]
    |psi|^2 = 0.004
==== e(   8) =     2.92481 eV ==== 
     psi = 0.006*[#   2]+0.006*[#   6]
    |psi|^2 = 0.013
==== e(   9) =     4.14467 eV ==== 
     psi = 0.292*[#   3]+0.292*[#   7]+0.097*[#   4]+0.097*[#   8]+0.063*[#   1]
          +0.063*[#   5]
    |psi|^2 = 0.904
==== e(  10) =     5.30161 eV ==== 
     psi = 0.354*[#   4]+0.354*[#   8]+0.118*[#   3]+0.118*[#   7]
    |psi|^2 = 0.944
==== e(  11) =     5.53303 eV ==== 
     psi = 0.006*[#   3]+0.006*[#   7]+0.002*[#   4]+0.002*[#   8]
    |psi|^2 = 0.017
==== e(  12) =     6.16139 eV ==== 
     psi = 0.491*[#   2]+0.491*[#   6]
    |psi|^2 = 0.982
==== e(  13) =     7.19437 eV ==== 
     psi = 0.003*[#   2]+0.003*[#   6]
    |psi|^2 = 0.007
==== e(  14) =     8.79521 eV ==== 
     psi = 0.444*[#   1]+0.444*[#   5]+0.030*[#   3]+0.030*[#   7]+0.010*[#   4]
          +0.010*[#   8]
    |psi|^2 = 0.969
==== e(  15) =    10.09353 eV ==== 
 
    |psi|^2 = 0.003
==== e(  16) =    12.72744 eV ==== 
     psi = 0.001*[#   2]+0.001*[#   6]
    |psi|^2 = 0.003
==== e(  17) =    15.61880 eV ==== 
 
    |psi|^2 = 0.001
==== e(  18) =    19.07052 eV ==== 
 
    |psi|^2 = 0.002
==== e(  19) =    19.10408 eV ==== 
     psi = 0.003*[#   3]+0.003*[#   7]+0.002*[#   1]+0.002*[#   5]
    |psi|^2 = 0.011
==== e(  20) =    21.51214 eV ==== 
     psi = 0.004*[#   2]+0.004*[#   6]
    |psi|^2 = 0.008
==== e(  21) =    22.02035 eV ==== 
 
    |psi|^2 = 0.000
==== e(  22) =    22.37818 eV ==== 
 
    |psi|^2 = 0.000
==== e(  23) =    24.93878 eV ==== 
     psi = 0.002*[#   1]+0.002*[#   5]
    |psi|^2 = 0.005
==== e(  24) =    25.53198 eV ==== 
     psi = 0.002*[#   2]+0.002*[#   6]
    |psi|^2 = 0.004
==== e(  25) =    26.36965 eV ==== 
 
    |psi|^2 = 0.001
==== e(  26) =    27.45662 eV ==== 
 
    |psi|^2 = 0.003
==== e(  27) =    27.96608 eV ==== 
     psi = 0.001*[#   4]+0.001*[#   8]
    |psi|^2 = 0.003
==== e(  28) =    28.28558 eV ==== 
 
    |psi|^2 = 0.001

 k =   0.1250000000  0.0721687836  0.0000000000
==== e(   1) =   -23.39451 eV ==== 
     psi = 0.435*[#   1]+0.435*[#   5]+0.042*[#   3]+0.042*[#   7]+0.014*[#   4]
          +0.014*[#   8]
    |psi|^2 = 0.983
==== e(   2) =   -11.41949 eV ==== 
     psi = 0.478*[#   2]+0.478*[#   6]
    |psi|^2 = 0.956
==== e(   3) =    -8.68199 eV ==== 
     psi = 0.348*[#   3]+0.348*[#   7]+0.116*[#   4]+0.116*[#   8]+0.034*[#   1]
          +0.034*[#   5]
    |psi|^2 = 0.996
==== e(   4) =    -8.00262 eV ==== 
     psi = 0.374*[#   4]+0.374*[#   8]+0.125*[#   3]+0.125*[#   7]
    |psi|^2 = 0.997
==== e(   5) =    -0.47000 eV ==== 
     psi = 0.012*[#   3]+0.012*[#   7]+0.004*[#   4]+0.004*[#   8]
    |psi|^2 = 0.032
==== e(   6) =     0.41408 eV ==== 
     psi = 0.011*[#   2]+0.011*[#   6]
    |psi|^2 = 0.022
==== e(   7) =     2.10365 eV ==== 
     psi = 0.001*[#   3]+0.001*[#   7]
    |psi|^2 = 0.005
==== e(   8) =     3.01946 eV ==== 
     psi = 0.006*[#   2]+0.006*[#   6]
    |psi|^2 = 0.012
==== e(   9) =     4.14025 eV ==== 
     psi = 0.280*[#   3]+0.280*[#   7]+0.093*[#   4]+0.093*[#   8]+0.076*[#   1]
          +0.076*[#   5]
    |psi|^2 = 0.899
==== e(  10) =     5.56961 eV ==== 
     psi = 0.353*[#   4]+0.353*[#   8]+0.118*[#   3]+0.118*[#   7]
    |psi|^2 = 0.942
==== e(  11) =     5.62900 eV ==== 
     psi = 0.006*[#   3]+0.006*[#   7]+0.002*[#   4]+0.002*[#   8]
    |psi|^2 = 0.018
==== e(  12) =     5.94243 eV ==== 
     psi = 0.490*[#   2]+0.490*[#   6]
    |psi|^2 = 0.979
==== e(  13) =     7.28568 eV ==== 
     psi = 0.003*[#   2]+0.003*[#   6]
    |psi|^2 = 0.006
==== e(  14) =     8.93491 eV ==== 
     psi = 0.433*[#   1]+0.433*[#   5]+0.037*[#   3]+0.037*[#   7]+0.012*[#   4]
          +0.012*[#   8]
    |psi|^2 = 0.966
==== e(  15) =    10.18851 eV ==== 
     psi = 0.001*[#   3]+0.001*[#   7]
    |psi|^2 = 0.003
==== e(  16) =    12.80671 eV ==== 
     psi = 0.001*[#   2]+0.001*[#   6]
    |psi|^2 = 0.002
==== e(  17) =    15.71134 eV ==== 
 
    |psi|^2 = 0.001
==== e(  18) =    18.98663 eV ==== 
     psi = 0.001*[#   2]+0.001*[#   6]
    |psi|^2 = 0.003
==== e(  19) =    19.27342 eV ==== 
     psi = 0.004*[#   3]+0.004*[#   7]+0.003*[#   1]+0.003*[#   5]+0.001*[#   4]
          +0.001*[#   8]
    |psi|^2 = 0.015
==== e(  20) =    21.22081 eV ==== 
     psi = 0.004*[#   2]+0.004*[#   6]
    |psi|^2 = 0.008
==== e(  21) =    21.74310 eV ==== 
 
    |psi|^2 = 0.000
==== e(  22) =    22.47192 eV ==== 
 
    |psi|^2 = 0.000
==== e(  23) =    24.27399 eV ==== 
     psi = 0.002*[#   1]+0.002*[#   5]
    |psi|^2 = 0.005
==== e(  24) =    25.36827 eV ==== 
 
    |psi|^2 = 0.001
==== e(  25) =    25.92409 eV ==== 
     psi = 0.002*[#   2]+0.002*[#   6]
    |psi|^2 = 0.004
==== e(  26) =    26.76246 eV ==== 
     psi = 0.001*[#   1]+0.001*[#   5]
    |psi|^2 = 0.003
==== e(  27) =    27.65746 eV ==== 
     psi = 0.001*[#   4]+0.001*[#   8]
    |psi|^2 = 0.003
==== e(  28) =    28.17838 eV ==== 
 
    |psi|^2 = 0.001

 k =   0.1375000000  0.0793856620  0.0000000000
==== e(   1) =   -23.31741 eV ==== 
     psi = 0.426*[#   1]+0.426*[#   5]+0.049*[#   3]+0.049*[#   7]+0.016*[#   4]
          +0.016*[#   8]
    |psi|^2 = 0.983
==== e(   2) =   -11.32781 eV ==== 
     psi = 0.479*[#   2]+0.479*[#   6]
    |psi|^2 = 0.958
==== e(   3) =    -8.93873 eV ==== 
     psi = 0.343*[#   3]+0.343*[#   7]+0.114*[#   4]+0.114*[#   8]+0.040*[#   1]
          +0.040*[#   5]
    |psi|^2 = 0.996
==== e(   4) =    -8.12646 eV ==== 
     psi = 0.374*[#   4]+0.374*[#   8]+0.125*[#   3]+0.125*[#   7]
    |psi|^2 = 0.997
==== e(   5) =    -0.36498 eV ==== 
     psi = 0.013*[#   3]+0.013*[#   7]+0.004*[#   4]+0.004*[#   8]
    |psi|^2 = 0.035
==== e(   6) =     0.51988 eV ==== 
     psi = 0.010*[#   2]+0.010*[#   6]
    |psi|^2 = 0.021
==== e(   7) =     2.20924 eV ==== 
     psi = 0.001*[#   3]+0.001*[#   7]
    |psi|^2 = 0.005
==== e(   8) =     3.12392 eV ==== 
     psi = 0.006*[#   2]+0.006*[#   6]
    |psi|^2 = 0.012
==== e(   9) =     4.12976 eV ==== 
     psi = 0.268*[#   3]+0.268*[#   7]+0.091*[#   1]+0.091*[#   5]+0.089*[#   4]
          +0.089*[#   8]
    |psi|^2 = 0.895
==== e(  10) =     5.70621 eV ==== 
     psi = 0.488*[#   2]+0.488*[#   6]
    |psi|^2 = 0.976
==== e(  11) =     5.73466 eV ==== 
     psi = 0.006*[#   3]+0.006*[#   7]+0.002*[#   4]+0.002*[#   8]
    |psi|^2 = 0.018
==== e(  12) =     5.85830 eV ==== 
     psi = 0.353*[#   4]+0.353*[#   8]+0.118*[#   3]+0.118*[#   7]
    |psi|^2 = 0.941
==== e(  13) =     7.38642 eV ==== 
     psi = 0.003*[#   2]+0.003*[#   6]
    |psi|^2 = 0.006
==== e(  14) =     9.08931 eV ==== 
     psi = 0.420*[#   1]+0.420*[#   5]+0.045*[#   3]+0.045*[#   7]+0.015*[#   4]
          +0.015*[#   8]
    |psi|^2 = 0.961
==== e(  15) =    10.29337 eV ==== 
     psi = 0.001*[#   3]+0.001*[#   7]
    |psi|^2 = 0.004
==== e(  16) =    12.89297 eV ==== 
     psi = 0.001*[#   2]+0.001*[#   6]
    |psi|^2 = 0.002
==== e(  17) =    15.81324 eV ==== 
 
    |psi|^2 = 0.001
==== e(  18) =    18.85028 eV ==== 
     psi = 0.002*[#   2]+0.002*[#   6]
    |psi|^2 = 0.004
==== e(  19) =    19.44065 eV ==== 
     psi = 0.004*[#   3]+0.004*[#   7]+0.003*[#   1]+0.003*[#   5]+0.001*[#   4]
          +0.001*[#   8]
    |psi|^2 = 0.018
==== e(  20) =    20.99327 eV ==== 
     psi = 0.004*[#   2]+0.004*[#   6]
    |psi|^2 = 0.008
==== e(  21) =    21.47029 eV ==== 
 
    |psi|^2 = 0.000
==== e(  22) =    22.57487 eV ==== 
 
    |psi|^2 = 0.000
==== e(  23) =    23.63016 eV ==== 
     psi = 0.002*[#   1]+0.002*[#   5]
    |psi|^2 = 0.006
==== e(  24) =    24.83481 eV ==== 
 
    |psi|^2 = 0.000
==== e(  25) =    25.82685 eV ==== 
     psi = 0.003*[#   2]+0.003*[#   6]
    |psi|^2 = 0.006
==== e(  26) =    26.07895 eV ==== 
     psi = 0.001*[#   1]+0.001*[#   5]
    |psi|^2 = 0.003
==== e(  27) =    27.35841 eV ==== 
     psi = 0.001*[#   4]+0.001*[#   8]
    |psi|^2 = 0.003
==== e(  28) =    27.73749 eV ==== 
 
    |psi|^2 = 0.001

 k =   0.1500000000  0.0866025404  0.0000000000
==== e(   1) =   -23.23305 eV ==== 
     psi = 0.417*[#   1]+0.417*[#   5]+0.056*[#   3]+0.056*[#   7]+0.019*[#   4]
          +0.019*[#   8]
    |psi|^2 = 0.983
==== e(   2) =   -11.22764 eV ==== 
     psi = 0.480*[#   2]+0.480*[#   6]
    |psi|^2 = 0.960
==== e(   3) =    -9.20935 eV ==== 
     psi = 0.338*[#   3]+0.338*[#   7]+0.113*[#   4]+0.113*[#   8]+0.046*[#   1]
          +0.046*[#   5]
    |psi|^2 = 0.995
==== e(   4) =    -8.25467 eV ==== 
     psi = 0.374*[#   4]+0.374*[#   8]+0.125*[#   3]+0.125*[#   7]
    |psi|^2 = 0.997
==== e(   5) =    -0.24998 eV ==== 
     psi = 0.014*[#   3]+0.014*[#   7]+0.005*[#   4]+0.005*[#   8]
    |psi|^2 = 0.037
==== e(   6) =     0.63566 eV ==== 
     psi = 0.010*[#   2]+0.010*[#   6]
    |psi|^2 = 0.020
==== e(   7) =     2.32482 eV ==== 
     psi = 0.001*[#   3]+0.001*[#   7]
    |psi|^2 = 0.005
==== e(   8) =     3.23807 eV ==== 
     psi = 0.006*[#   2]+0.006*[#   6]
    |psi|^2 = 0.012
==== e(   9) =     4.11310 eV ==== 
     psi = 0.255*[#   3]+0.255*[#   7]+0.105*[#   1]+0.105*[#   5]+0.085*[#   4]
          +0.085*[#   8]
    |psi|^2 = 0.892
==== e(  10) =     5.45414 eV ==== 
     psi = 0.487*[#   2]+0.487*[#   6]
    |psi|^2 = 0.974
==== e(  11) =     5.85001 eV ==== 
     psi = 0.006*[#   3]+0.006*[#   7]+0.002*[#   4]+0.002*[#   8]
    |psi|^2 = 0.018
==== e(  12) =     6.16612 eV ==== 
     psi = 0.352*[#   4]+0.352*[#   8]+0.117*[#   3]+0.117*[#   7]
    |psi|^2 = 0.939
==== e(  13) =     7.49654 eV ==== 
     psi = 0.003*[#   2]+0.003*[#   6]
    |psi|^2 = 0.006
==== e(  14) =     9.25729 eV ==== 
     psi = 0.407*[#   1]+0.407*[#   5]+0.053*[#   3]+0.053*[#   7]+0.018*[#   4]
          +0.018*[#   8]
    |psi|^2 = 0.955
==== e(  15) =    10.40808 eV ==== 
     psi = 0.001*[#   3]+0.001*[#   7]
    |psi|^2 = 0.004
==== e(  16) =    12.98568 eV ==== 
     psi = 0.001*[#   2]+0.001*[#   6]
    |psi|^2 = 0.002
==== e(  17) =    15.92441 eV ==== 
 
    |psi|^2 = 0.001
==== e(  18) =    18.65656 eV ==== 
     psi = 0.003*[#   2]+0.003*[#   6]
    |psi|^2 = 0.006
==== e(  19) =    19.59494 eV ==== 
     psi = 0.006*[#   3]+0.006*[#   7]+0.004*[#   1]+0.004*[#   5]+0.002*[#   4]
          +0.002*[#   8]
    |psi|^2 = 0.023
==== e(  20) =    20.83448 eV ==== 
     psi = 0.004*[#   2]+0.004*[#   6]
    |psi|^2 = 0.007
==== e(  21) =    21.20316 eV ==== 
 
    |psi|^2 = 0.000
==== e(  22) =    22.67715 eV ==== 
 
    |psi|^2 = 0.001
==== e(  23) =    23.02433 eV ==== 
     psi = 0.002*[#   1]+0.002*[#   5]
    |psi|^2 = 0.006
==== e(  24) =    24.20938 eV ==== 
 
    |psi|^2 = 0.000
==== e(  25) =    25.40833 eV ==== 
     psi = 0.001*[#   1]+0.001*[#   5]
    |psi|^2 = 0.004
==== e(  26) =    25.76419 eV ==== 
     psi = 0.003*[#   2]+0.003*[#   6]
    |psi|^2 = 0.006
==== e(  27) =    27.06899 eV ==== 
     psi = 0.001*[#   4]+0.001*[#   8]
    |psi|^2 = 0.003
==== e(  28) =    27.22741 eV ==== 
     psi = 0.001*[#   2]+0.001*[#   6]
    |psi|^2 = 0.002

 k =   0.1625000000  0.0938194187  0.0000000000
==== e(   1) =   -23.14145 eV ==== 
     psi = 0.408*[#   1]+0.408*[#   5]+0.063*[#   3]+0.063*[#   7]+0.021*[#   4]
          +0.021*[#   8]
    |psi|^2 = 0.982
==== e(   2) =   -11.11905 eV ==== 
     psi = 0.481*[#   2]+0.481*[#   6]
    |psi|^2 = 0.962
==== e(   3) =    -9.49210 eV ==== 
     psi = 0.334*[#   3]+0.334*[#   7]+0.111*[#   4]+0.111*[#   8]+0.052*[#   1]
          +0.052*[#   5]
    |psi|^2 = 0.995
==== e(   4) =    -8.38601 eV ==== 
     psi = 0.374*[#   4]+0.374*[#   8]+0.125*[#   3]+0.125*[#   7]
    |psi|^2 = 0.997
==== e(   5) =    -0.12500 eV ==== 
     psi = 0.014*[#   3]+0.014*[#   7]+0.005*[#   4]+0.005*[#   8]
    |psi|^2 = 0.039
==== e(   6) =     0.76139 eV ==== 
     psi = 0.009*[#   2]+0.009*[#   6]
    |psi|^2 = 0.019
==== e(   7) =     2.45034 eV ==== 
     psi = 0.001*[#   3]+0.001*[#   7]
    |psi|^2 = 0.004
==== e(   8) =     3.36172 eV ==== 
     psi = 0.006*[#   2]+0.006*[#   6]
    |psi|^2 = 0.011
==== e(   9) =     4.09050 eV ==== 
     psi = 0.243*[#   3]+0.243*[#   7]+0.120*[#   1]+0.120*[#   5]+0.081*[#   4]
          +0.081*[#   8]
    |psi|^2 = 0.890
==== e(  10) =     5.18774 eV ==== 
     psi = 0.485*[#   2]+0.485*[#   6]
    |psi|^2 = 0.971
==== e(  11) =     5.97506 eV ==== 
     psi = 0.006*[#   3]+0.006*[#   7]+0.002*[#   4]+0.002*[#   8]
    |psi|^2 = 0.017
==== e(  12) =     6.49154 eV ==== 
     psi = 0.351*[#   4]+0.351*[#   8]+0.117*[#   3]+0.117*[#   7]
    |psi|^2 = 0.937
==== e(  13) =     7.61595 eV ==== 
     psi = 0.003*[#   2]+0.003*[#   6]
    |psi|^2 = 0.006
==== e(  14) =     9.43738 eV ==== 
     psi = 0.393*[#   1]+0.393*[#   5]+0.061*[#   3]+0.061*[#   7]+0.020*[#   4]
          +0.020*[#   8]
    |psi|^2 = 0.948
==== e(  15) =    10.53263 eV ==== 
     psi = 0.002*[#   3]+0.002*[#   7]
    |psi|^2 = 0.005
==== e(  16) =    13.08413 eV ==== 
     psi = 0.001*[#   2]+0.001*[#   6]
    |psi|^2 = 0.003
==== e(  17) =    16.04474 eV ==== 
 
    |psi|^2 = 0.001
==== e(  18) =    18.41204 eV ==== 
     psi = 0.004*[#   2]+0.004*[#   6]
    |psi|^2 = 0.008
==== e(  19) =    19.71813 eV ==== 
     psi = 0.007*[#   3]+0.007*[#   7]+0.005*[#   1]+0.005*[#   5]+0.002*[#   4]
          +0.002*[#   8]
    |psi|^2 = 0.029
==== e(  20) =    20.73542 eV ==== 
     psi = 0.003*[#   2]+0.003*[#   6]
    |psi|^2 = 0.006
==== e(  21) =    20.94265 eV ==== 
 
    |psi|^2 = 0.000
==== e(  22) =    22.40689 eV ==== 
     psi = 0.003*[#   1]+0.003*[#   5]
    |psi|^2 = 0.006
==== e(  23) =    22.84137 eV ==== 
 
    |psi|^2 = 0.001
==== e(  24) =    23.58271 eV ==== 
 
    |psi|^2 = 0.000
==== e(  25) =    24.75351 eV ==== 
     psi = 0.002*[#   1]+0.002*[#   5]
    |psi|^2 = 0.004
==== e(  26) =    25.58225 eV ==== 
     psi = 0.002*[#   2]+0.002*[#   6]
    |psi|^2 = 0.004
==== e(  27) =    26.78923 eV ==== 
     psi = 0.001*[#   4]+0.001*[#   8]
    |psi|^2 = 0.003
==== e(  28) =    26.82440 eV ==== 
     psi = 0.002*[#   2]+0.002*[#   6]
    |psi|^2 = 0.005

 k =   0.1750000000  0.1010362971  0.0000000000
==== e(   1) =   -23.04263 eV ==== 
     psi = 0.398*[#   1]+0.398*[#   5]+0.070*[#   3]+0.070*[#   7]+0.023*[#   4]
          +0.023*[#   8]
    |psi|^2 = 0.982
==== e(   2) =   -11.00212 eV ==== 
     psi = 0.482*[#   2]+0.482*[#   6]
    |psi|^2 = 0.965
==== e(   3) =    -9.78529 eV ==== 
     psi = 0.329*[#   3]+0.329*[#   7]+0.110*[#   4]+0.110*[#   8]+0.059*[#   1]
          +0.059*[#   5]
    |psi|^2 = 0.994
==== e(   4) =    -8.51936 eV ==== 
     psi = 0.374*[#   4]+0.374*[#   8]+0.125*[#   3]+0.125*[#   7]
    |psi|^2 = 0.997
==== e(   5) =     0.00995 eV ==== 
     psi = 0.015*[#   3]+0.015*[#   7]+0.005*[#   4]+0.005*[#   8]
    |psi|^2 = 0.040
==== e(   6) =     0.89701 eV ==== 
     psi = 0.009*[#   2]+0.009*[#   6]
    |psi|^2 = 0.018
==== e(   7) =     2.58573 eV ==== 
 
    |psi|^2 = 0.004
==== e(   8) =     3.49442 eV ==== 
     psi = 0.006*[#   2]+0.006*[#   6]
    |psi|^2 = 0.012
==== e(   9) =     4.06240 eV ==== 
     psi = 0.232*[#   3]+0.232*[#   7]+0.135*[#   1]+0.135*[#   5]+0.077*[#   4]
          +0.077*[#   8]
    |psi|^2 = 0.889
==== e(  10) =     4.90879 eV ==== 
     psi = 0.483*[#   2]+0.483*[#   6]
    |psi|^2 = 0.967
==== e(  11) =     6.10984 eV ==== 
     psi = 0.006*[#   3]+0.006*[#   7]+0.002*[#   4]+0.002*[#   8]
    |psi|^2 = 0.017
==== e(  12) =     6.83310 eV ==== 
     psi = 0.351*[#   4]+0.351*[#   8]+0.117*[#   3]+0.117*[#   7]
    |psi|^2 = 0.935
==== e(  13) =     7.74458 eV ==== 
     psi = 0.003*[#   2]+0.003*[#   6]
    |psi|^2 = 0.006
==== e(  14) =     9.62787 eV ==== 
     psi = 0.378*[#   1]+0.378*[#   5]+0.069*[#   3]+0.069*[#   7]+0.023*[#   4]
          +0.023*[#   8]
    |psi|^2 = 0.940
==== e(  15) =    10.66699 eV ==== 
     psi = 0.002*[#   3]+0.002*[#   7]
    |psi|^2 = 0.006
==== e(  16) =    13.18739 eV ==== 
     psi = 0.001*[#   2]+0.001*[#   6]
    |psi|^2 = 0.003
==== e(  17) =    16.17411 eV ==== 
 
    |psi|^2 = 0.001
==== e(  18) =    18.13100 eV ==== 
     psi = 0.005*[#   2]+0.005*[#   6]
    |psi|^2 = 0.011
==== e(  19) =    19.77741 eV ==== 
     psi = 0.009*[#   3]+0.009*[#   7]+0.006*[#   1]+0.006*[#   5]+0.003*[#   4]
          +0.003*[#   8]
    |psi|^2 = 0.036
==== e(  20) =    20.67518 eV ==== 
     psi = 0.002*[#   2]+0.002*[#   6]
    |psi|^2 = 0.005
==== e(  21) =    20.68943 eV ==== 
 
    |psi|^2 = 0.000
==== e(  22) =    21.90175 eV ==== 
     psi = 0.003*[#   1]+0.003*[#   5]
    |psi|^2 = 0.006
==== e(  23) =    22.96808 eV ==== 
 
    |psi|^2 = 0.001
==== e(  24) =    22.97542 eV ==== 
 
    |psi|^2 = 0.001
==== e(  25) =    24.12010 eV ==== 
     psi = 0.002*[#   1]+0.002*[#   5]
    |psi|^2 = 0.005
==== e(  26) =    25.22684 eV ==== 
 
    |psi|^2 = 0.002
==== e(  27) =    26.51918 eV ==== 
     psi = 0.001*[#   4]+0.001*[#   8]
    |psi|^2 = 0.003
==== e(  28) =    26.57148 eV ==== 
     psi = 0.003*[#   2]+0.003*[#   6]
    |psi|^2 = 0.007

 k =   0.1875000000  0.1082531755  0.0000000000
==== e(   1) =   -22.93662 eV ==== 
     psi = 0.389*[#   1]+0.389*[#   5]+0.076*[#   3]+0.076*[#   7]+0.025*[#   4]
          +0.025*[#   8]
    |psi|^2 = 0.982
==== e(   2) =   -10.87695 eV ==== 
     psi = 0.484*[#   2]+0.484*[#   6]
    |psi|^2 = 0.967
==== e(   3) =   -10.08742 eV ==== 
     psi = 0.324*[#   3]+0.324*[#   7]+0.108*[#   4]+0.108*[#   8]+0.065*[#   1]
          +0.065*[#   5]
    |psi|^2 = 0.994
==== e(   4) =    -8.65367 eV ==== 
     psi = 0.374*[#   4]+0.374*[#   8]+0.125*[#   3]+0.125*[#   7]
    |psi|^2 = 0.997
==== e(   5) =     0.15484 eV ==== 
     psi = 0.015*[#   3]+0.015*[#   7]+0.005*[#   4]+0.005*[#   8]
    |psi|^2 = 0.040
==== e(   6) =     1.04245 eV ==== 
     psi = 0.008*[#   2]+0.008*[#   6]
    |psi|^2 = 0.017
==== e(   7) =     2.73084 eV ==== 
     psi = 0.001*[#   1]+0.001*[#   5]
    |psi|^2 = 0.004
==== e(   8) =     3.63495 eV ==== 
     psi = 0.008*[#   2]+0.008*[#   6]
    |psi|^2 = 0.016
==== e(   9) =     4.02951 eV ==== 
     psi = 0.221*[#   3]+0.221*[#   7]+0.150*[#   1]+0.150*[#   5]+0.074*[#   4]
          +0.074*[#   8]
    |psi|^2 = 0.889
==== e(  10) =     4.61985 eV ==== 
     psi = 0.480*[#   2]+0.480*[#   6]
    |psi|^2 = 0.960
==== e(  11) =     6.25437 eV ==== 
     psi = 0.005*[#   3]+0.005*[#   7]+0.002*[#   4]+0.002*[#   8]
    |psi|^2 = 0.016
==== e(  12) =     7.18938 eV ==== 
     psi = 0.350*[#   4]+0.350*[#   8]+0.117*[#   3]+0.117*[#   7]
    |psi|^2 = 0.934
==== e(  13) =     7.88232 eV ==== 
     psi = 0.003*[#   2]+0.003*[#   6]
    |psi|^2 = 0.006
==== e(  14) =     9.82679 eV ==== 
     psi = 0.363*[#   1]+0.363*[#   5]+0.076*[#   3]+0.076*[#   7]+0.025*[#   4]
          +0.025*[#   8]
    |psi|^2 = 0.930
==== e(  15) =    10.81114 eV ==== 
     psi = 0.002*[#   3]+0.002*[#   7]
    |psi|^2 = 0.006
==== e(  16) =    13.29419 eV ==== 
     psi = 0.001*[#   2]+0.001*[#   6]
    |psi|^2 = 0.003
==== e(  17) =    16.31237 eV ==== 
 
    |psi|^2 = 0.001
==== e(  18) =    17.82860 eV ==== 
     psi = 0.007*[#   2]+0.007*[#   6]
    |psi|^2 = 0.013
==== e(  19) =    19.71807 eV ==== 
     psi = 0.010*[#   3]+0.010*[#   7]+0.008*[#   1]+0.008*[#   5]+0.003*[#   4]
          +0.003*[#   8]
    |psi|^2 = 0.042
==== e(  20) =    20.44404 eV ==== 
 
    |psi|^2 = 0.000
==== e(  21) =    20.62334 eV ==== 
     psi = 0.002*[#   2]+0.002*[#   6]
    |psi|^2 = 0.004
==== e(  22) =    21.49860 eV ==== 
     psi = 0.003*[#   1]+0.003*[#   5]
    |psi|^2 = 0.008
==== e(  23) =    22.40539 eV ==== 
 
    |psi|^2 = 0.001
==== e(  24) =    23.09781 eV ==== 
 
    |psi|^2 = 0.001
==== e(  25) =    23.52924 eV ==== 
     psi = 0.002*[#   1]+0.002*[#   5]
    |psi|^2 = 0.005
==== e(  26) =    24.75422 eV ==== 
 
    |psi|^2 = 0.000
==== e(  27) =    26.25884 eV ==== 
     psi = 0.001*[#   4]+0.001*[#   8]
    |psi|^2 = 0.004
==== e(  28) =    26.40533 eV ==== 
     psi = 0.004*[#   2]+0.004*[#   6]
    |psi|^2 = 0.008

 k =   0.2000000000  0.1154700538  0.0000000000
==== e(   1) =   -22.82345 eV ==== 
     psi = 0.380*[#   1]+0.380*[#   5]+0.083*[#   3]+0.083*[#   7]+0.028*[#   4]
          +0.028*[#   8]
    |psi|^2 = 0.982
==== e(   2) =   -10.74365 eV ==== 
     psi = 0.485*[#   2]+0.485*[#   6]
    |psi|^2 = 0.969
==== e(   3) =   -10.39705 eV ==== 
     psi = 0.319*[#   3]+0.319*[#   7]+0.106*[#   4]+0.106*[#   8]+0.071*[#   1]
          +0.071*[#   5]
    |psi|^2 = 0.994
==== e(   4) =    -8.78799 eV ==== 
     psi = 0.374*[#   4]+0.374*[#   8]+0.125*[#   3]+0.125*[#   7]
    |psi|^2 = 0.997
==== e(   5) =     0.30968 eV ==== 
     psi = 0.015*[#   3]+0.015*[#   7]+0.005*[#   4]+0.005*[#   8]
    |psi|^2 = 0.040
==== e(   6) =     1.19756 eV ==== 
     psi = 0.008*[#   2]+0.008*[#   6]
    |psi|^2 = 0.016
==== e(   7) =     2.88546 eV ==== 
     psi = 0.002*[#   1]+0.002*[#   5]
    |psi|^2 = 0.004
==== e(   8) =     3.77795 eV ==== 
     psi = 0.019*[#   2]+0.019*[#   6]
    |psi|^2 = 0.039
==== e(   9) =     3.99272 eV ==== 
     psi = 0.210*[#   3]+0.210*[#   7]+0.164*[#   1]+0.164*[#   5]+0.070*[#   4]
          +0.070*[#   8]
    |psi|^2 = 0.889
==== e(  10) =     4.32765 eV ==== 
     psi = 0.467*[#   2]+0.467*[#   6]
    |psi|^2 = 0.933
==== e(  11) =     6.40868 eV ==== 
     psi = 0.005*[#   3]+0.005*[#   7]+0.002*[#   4]+0.002*[#   8]
    |psi|^2 = 0.015
==== e(  12) =     7.55899 eV ==== 
     psi = 0.349*[#   4]+0.349*[#   8]+0.116*[#   3]+0.116*[#   7]
    |psi|^2 = 0.932
==== e(  13) =     8.02905 eV ==== 
     psi = 0.003*[#   2]+0.003*[#   6]
    |psi|^2 = 0.006
==== e(  14) =    10.03194 eV ==== 
     psi = 0.348*[#   1]+0.348*[#   5]+0.083*[#   3]+0.083*[#   7]+0.028*[#   4]
          +0.028*[#   8]
    |psi|^2 = 0.918
==== e(  15) =    10.96501 eV ==== 
     psi = 0.002*[#   3]+0.002*[#   7]+0.001*[#   1]+0.001*[#   5]
    |psi|^2 = 0.007
==== e(  16) =    13.40284 eV ==== 
     psi = 0.002*[#   2]+0.002*[#   6]
    |psi|^2 = 0.003
==== e(  17) =    16.45930 eV ==== 
 
    |psi|^2 = 0.001
==== e(  18) =    17.51708 eV ==== 
     psi = 0.007*[#   2]+0.007*[#   6]
    |psi|^2 = 0.015
==== e(  19) =    19.48878 eV ==== 
     psi = 0.011*[#   3]+0.011*[#   7]+0.009*[#   1]+0.009*[#   5]+0.004*[#   4]
          +0.004*[#   8]
    |psi|^2 = 0.046
==== e(  20) =    20.20690 eV ==== 
 
    |psi|^2 = 0.000
==== e(  21) =    20.53289 eV ==== 
     psi = 0.001*[#   2]+0.001*[#   6]
    |psi|^2 = 0.002
==== e(  22) =    21.23543 eV ==== 
     psi = 0.003*[#   1]+0.003*[#   5]+0.003*[#   3]+0.003*[#   7]
    |psi|^2 = 0.014
==== e(  23) =    21.90563 eV ==== 
 
    |psi|^2 = 0.002
==== e(  24) =    22.89508 eV ==== 
     psi = 0.002*[#   1]+0.002*[#   5]
    |psi|^2 = 0.005
==== e(  25) =    23.32559 eV ==== 
 
    |psi|^2 = 0.002
==== e(  26) =    24.24044 eV ==== 
 
    |psi|^2 = 0.000
==== e(  27) =    26.00821 eV ==== 
     psi = 0.001*[#   4]+0.001*[#   8]
    |psi|^2 = 0.004
==== e(  28) =    26.20970 eV ==== 
     psi = 0.003*[#   1]+0.003*[#   5]
    |psi|^2 = 0.008

 k =   0.2125000000  0.1226869322  0.0000000000
==== e(   1) =   -22.70315 eV ==== 
     psi = 0.371*[#   1]+0.371*[#   5]+0.090*[#   3]+0.090*[#   7]+0.030*[#   4]
          +0.030*[#   8]
    |psi|^2 = 0.982
==== e(   2) =   -10.71289 eV ==== 
     psi = 0.315*[#   3]+0.315*[#   7]+0.105*[#   4]+0.105*[#   8]+0.077*[#   1]
          +0.077*[#   5]
    |psi|^2 = 0.993
==== e(   3) =   -10.60235 eV ==== 
     psi = 0.486*[#   2]+0.486*[#   6]
    |psi|^2 = 0.972
==== e(   4) =    -8.92146 eV ==== 
     psi = 0.374*[#   4]+0.374*[#   8]+0.125*[#   3]+0.125*[#   7]
    |psi|^2 = 0.997
==== e(   5) =     0.47442 eV ==== 
     psi = 0.015*[#   3]+0.015*[#   7]+0.005*[#   4]+0.005*[#   8]
    |psi|^2 = 0.039
==== e(   6) =     1.36212 eV ==== 
     psi = 0.008*[#   2]+0.008*[#   6]
    |psi|^2 = 0.015
==== e(   7) =     3.04913 eV ==== 
     psi = 0.003*[#   1]+0.003*[#   5]
    |psi|^2 = 0.006
==== e(   8) =     3.86304 eV ==== 
     psi = 0.202*[#   2]+0.202*[#   6]
    |psi|^2 = 0.403
==== e(   9) =     3.95322 eV ==== 
     psi = 0.200*[#   3]+0.200*[#   7]+0.177*[#   1]+0.177*[#   5]+0.067*[#   4]
          +0.067*[#   8]
    |psi|^2 = 0.888
==== e(  10) =     4.09400 eV ==== 
     psi = 0.283*[#   2]+0.283*[#   6]
    |psi|^2 = 0.565
==== e(  11) =     6.57276 eV ==== 
     psi = 0.004*[#   3]+0.004*[#   7]+0.001*[#   4]+0.001*[#   8]
    |psi|^2 = 0.014
==== e(  12) =     7.94059 eV ==== 
     psi = 0.349*[#   4]+0.349*[#   8]+0.116*[#   3]+0.116*[#   7]
    |psi|^2 = 0.930
==== e(  13) =     8.18461 eV ==== 
     psi = 0.003*[#   2]+0.003*[#   6]
    |psi|^2 = 0.005
==== e(  14) =    10.24088 eV ==== 
     psi = 0.332*[#   1]+0.332*[#   5]+0.090*[#   3]+0.090*[#   7]+0.030*[#   4]
          +0.030*[#   8]
    |psi|^2 = 0.903
==== e(  15) =    11.12856 eV ==== 
     psi = 0.002*[#   3]+0.002*[#   7]+0.001*[#   1]+0.001*[#   5]
    |psi|^2 = 0.008
==== e(  16) =    13.51096 eV ==== 
     psi = 0.002*[#   2]+0.002*[#   6]
    |psi|^2 = 0.004
==== e(  17) =    16.61459 eV ==== 
 
    |psi|^2 = 0.001
==== e(  18) =    17.20543 eV ==== 
     psi = 0.008*[#   2]+0.008*[#   6]
    |psi|^2 = 0.016
==== e(  19) =    19.10680 eV ==== 
     psi = 0.010*[#   3]+0.010*[#   7]+0.010*[#   1]+0.010*[#   5]+0.003*[#   4]
          +0.003*[#   8]
    |psi|^2 = 0.048
==== e(  20) =    19.97831 eV ==== 
 
    |psi|^2 = 0.000
==== e(  21) =    20.33192 eV ==== 
 
    |psi|^2 = 0.001
==== e(  22) =    21.05481 eV ==== 
     psi = 0.005*[#   3]+0.005*[#   7]+0.004*[#   1]+0.004*[#   5]+0.002*[#   4]
          +0.002*[#   8]
    |psi|^2 = 0.022
==== e(  23) =    21.53288 eV ==== 
     psi = 0.001*[#   2]+0.001*[#   6]
    |psi|^2 = 0.003
==== e(  24) =    22.42469 eV ==== 
     psi = 0.003*[#   1]+0.003*[#   5]
    |psi|^2 = 0.007
==== e(  25) =    23.47903 eV ==== 
 
    |psi|^2 = 0.001
==== e(  26) =    23.72997 eV ==== 
 
    |psi|^2 = 0.000
==== e(  27) =    25.63276 eV ==== 
     psi = 0.003*[#   1]+0.003*[#   5]
    |psi|^2 = 0.009
==== e(  28) =    25.76731 eV ==== 
     psi = 0.001*[#   4]+0.001*[#   8]
    |psi|^2 = 0.004

 k =   0.2250000000  0.1299038106  0.0000000000
==== e(   1) =   -22.57576 eV ==== 
     psi = 0.363*[#   1]+0.363*[#   5]+0.096*[#   3]+0.096*[#   7]+0.032*[#   4]
          +0.032*[#   8]
    |psi|^2 = 0.981
==== e(   2) =   -11.03377 eV ==== 
     psi = 0.310*[#   3]+0.310*[#   7]+0.103*[#   4]+0.103*[#   8]+0.083*[#   1]
          +0.083*[#   5]
    |psi|^2 = 0.993
==== e(   3) =   -10.45318 eV ==== 
     psi = 0.487*[#   2]+0.487*[#   6]
    |psi|^2 = 0.974
==== e(   4) =    -9.05330 eV ==== 
     psi = 0.374*[#   4]+0.374*[#   8]+0.125*[#   3]+0.125*[#   7]
    |psi|^2 = 0.997
==== e(   5) =     0.64906 eV ==== 
     psi = 0.014*[#   3]+0.014*[#   7]+0.005*[#   4]+0.005*[#   8]
    |psi|^2 = 0.038
==== e(   6) =     1.53568 eV ==== 
     psi = 0.008*[#   2]+0.008*[#   6]
    |psi|^2 = 0.016
==== e(   7) =     3.22074 eV ==== 
     psi = 0.005*[#   1]+0.005*[#   5]
    |psi|^2 = 0.011
==== e(   8) =     3.64251 eV ==== 
     psi = 0.446*[#   2]+0.446*[#   6]
    |psi|^2 = 0.892
==== e(   9) =     3.91285 eV ==== 
     psi = 0.190*[#   3]+0.190*[#   7]+0.189*[#   1]+0.189*[#   5]+0.063*[#   4]
          +0.063*[#   8]
    |psi|^2 = 0.884
==== e(  10) =     4.16826 eV ==== 
     psi = 0.036*[#   2]+0.036*[#   6]
    |psi|^2 = 0.072
==== e(  11) =     6.74664 eV ==== 
     psi = 0.004*[#   3]+0.004*[#   7]+0.001*[#   4]+0.001*[#   8]
    |psi|^2 = 0.013
==== e(  12) =     8.33284 eV ==== 
     psi = 0.348*[#   4]+0.348*[#   8]+0.116*[#   3]+0.116*[#   7]
    |psi|^2 = 0.928
==== e(  13) =     8.34884 eV ==== 
     psi = 0.003*[#   2]+0.003*[#   6]
    |psi|^2 = 0.005
==== e(  14) =    10.45086 eV ==== 
     psi = 0.317*[#   1]+0.317*[#   5]+0.095*[#   3]+0.095*[#   7]+0.032*[#   4]
          +0.032*[#   8]
    |psi|^2 = 0.886
==== e(  15) =    11.30168 eV ==== 
     psi = 0.002*[#   3]+0.002*[#   7]+0.002*[#   1]+0.002*[#   5]
    |psi|^2 = 0.009
==== e(  16) =    13.61517 eV ==== 
     psi = 0.002*[#   2]+0.002*[#   6]
    |psi|^2 = 0.005
==== e(  17) =    16.77764 eV ==== 
 
    |psi|^2 = 0.001
==== e(  18) =    16.90035 eV ==== 
     psi = 0.009*[#   2]+0.009*[#   6]
    |psi|^2 = 0.017
==== e(  19) =    18.63848 eV ==== 
     psi = 0.012*[#   1]+0.012*[#   5]+0.011*[#   3]+0.011*[#   7]+0.004*[#   4]
          +0.004*[#   8]
    |psi|^2 = 0.052
==== e(  20) =    19.75855 eV ==== 
 
    |psi|^2 = 0.000
==== e(  21) =    19.97850 eV ==== 
 
    |psi|^2 = 0.000
==== e(  22) =    20.81913 eV ==== 
     psi = 0.007*[#   3]+0.007*[#   7]+0.005*[#   1]+0.005*[#   5]+0.002*[#   4]
          +0.002*[#   8]
    |psi|^2 = 0.028
==== e(  23) =    21.30869 eV ==== 
     psi = 0.001*[#   2]+0.001*[#   6]
    |psi|^2 = 0.003
==== e(  24) =    22.08464 eV ==== 
     psi = 0.004*[#   1]+0.004*[#   5]+0.002*[#   3]+0.002*[#   7]
    |psi|^2 = 0.013
==== e(  25) =    23.25421 eV ==== 
 
    |psi|^2 = 0.000
==== e(  26) =    23.65370 eV ==== 
 
    |psi|^2 = 0.002
==== e(  27) =    25.07343 eV ==== 
     psi = 0.003*[#   1]+0.003*[#   5]
    |psi|^2 = 0.009
==== e(  28) =    25.53612 eV ==== 
     psi = 0.002*[#   4]+0.002*[#   8]
    |psi|^2 = 0.004

 k =   0.2375000000  0.1371206889  0.0000000000
==== e(   1) =   -22.44133 eV ==== 
     psi = 0.355*[#   1]+0.355*[#   5]+0.102*[#   3]+0.102*[#   7]+0.034*[#   4]
          +0.034*[#   8]
    |psi|^2 = 0.981
==== e(   2) =   -11.35860 eV ==== 
     psi = 0.306*[#   3]+0.306*[#   7]+0.102*[#   4]+0.102*[#   8]+0.089*[#   1]
          +0.089*[#   5]
    |psi|^2 = 0.993
==== e(   3) =   -10.29632 eV ==== 
     psi = 0.488*[#   2]+0.488*[#   6]
    |psi|^2 = 0.976
==== e(   4) =    -9.18283 eV ==== 
     psi = 0.374*[#   4]+0.374*[#   8]+0.125*[#   3]+0.125*[#   7]
    |psi|^2 = 0.997
==== e(   5) =     0.83357 eV ==== 
     psi = 0.014*[#   3]+0.014*[#   7]+0.005*[#   4]+0.005*[#   8]
    |psi|^2 = 0.037
==== e(   6) =     1.71723 eV ==== 
     psi = 0.009*[#   2]+0.009*[#   6]
    |psi|^2 = 0.018
==== e(   7) =     3.32992 eV ==== 
     psi = 0.465*[#   2]+0.465*[#   6]
    |psi|^2 = 0.930
==== e(   8) =     3.39707 eV ==== 
     psi = 0.012*[#   1]+0.012*[#   5]+0.002*[#   3]+0.002*[#   7]
    |psi|^2 = 0.031
==== e(   9) =     3.87556 eV ==== 
     psi = 0.195*[#   1]+0.195*[#   5]+0.178*[#   3]+0.178*[#   7]+0.059*[#   4]
          +0.059*[#   8]
    |psi|^2 = 0.865
==== e(  10) =     4.33903 eV ==== 
     psi = 0.014*[#   2]+0.014*[#   6]
    |psi|^2 = 0.029
==== e(  11) =     6.93031 eV ==== 
     psi = 0.004*[#   3]+0.004*[#   7]+0.001*[#   4]+0.001*[#   8]
    |psi|^2 = 0.012
==== e(  12) =     8.52152 eV ==== 
     psi = 0.003*[#   2]+0.003*[#   6]
    |psi|^2 = 0.005
==== e(  13) =     8.73439 eV ==== 
     psi = 0.347*[#   4]+0.347*[#   8]+0.116*[#   3]+0.116*[#   7]
    |psi|^2 = 0.926
==== e(  14) =    10.65870 eV ==== 
     psi = 0.300*[#   1]+0.300*[#   5]+0.099*[#   3]+0.099*[#   7]+0.033*[#   4]
          +0.033*[#   8]
    |psi|^2 = 0.866
==== e(  15) =    11.48422 eV ==== 
     psi = 0.002*[#   3]+0.002*[#   7]+0.002*[#   1]+0.002*[#   5]
    |psi|^2 = 0.010
==== e(  16) =    13.71061 eV ==== 
     psi = 0.003*[#   2]+0.003*[#   6]
    |psi|^2 = 0.006
==== e(  17) =    16.60747 eV ==== 
     psi = 0.009*[#   2]+0.009*[#   6]
    |psi|^2 = 0.017
==== e(  18) =    16.94688 eV ==== 
 
    |psi|^2 = 0.002
==== e(  19) =    18.13545 eV ==== 
     psi = 0.013*[#   1]+0.013*[#   5]+0.011*[#   3]+0.011*[#   7]+0.004*[#   4]
          +0.004*[#   8]
    |psi|^2 = 0.057
==== e(  20) =    19.52397 eV ==== 
 
    |psi|^2 = 0.000
==== e(  21) =    19.54780 eV ==== 
 
    |psi|^2 = 0.000
==== e(  22) =    20.44335 eV ==== 
     psi = 0.007*[#   3]+0.007*[#   7]+0.005*[#   1]+0.005*[#   5]+0.002*[#   4]
          +0.002*[#   8]
    |psi|^2 = 0.030
==== e(  23) =    21.15006 eV ==== 
 
    |psi|^2 = 0.002
==== e(  24) =    21.91595 eV ==== 
     psi = 0.006*[#   1]+0.006*[#   5]+0.004*[#   3]+0.004*[#   7]+0.001*[#   4]
          +0.001*[#   8]
    |psi|^2 = 0.024
==== e(  25) =    22.84925 eV ==== 
 
    |psi|^2 = 0.001
==== e(  26) =    23.81804 eV ==== 
 
    |psi|^2 = 0.002
==== e(  27) =    24.55947 eV ==== 
     psi = 0.004*[#   1]+0.004*[#   5]
    |psi|^2 = 0.010
==== e(  28) =    25.31462 eV ==== 
     psi = 0.002*[#   4]+0.002*[#   8]
    |psi|^2 = 0.004

 k =   0.2500000000  0.1443375673  0.0000000000
==== e(   1) =   -22.29990 eV ==== 
     psi = 0.347*[#   1]+0.347*[#   5]+0.108*[#   3]+0.108*[#   7]+0.036*[#   4]
          +0.036*[#   8]
    |psi|^2 = 0.981
==== e(   2) =   -11.68639 eV ==== 
     psi = 0.301*[#   3]+0.301*[#   7]+0.100*[#   4]+0.100*[#   8]+0.094*[#   1]
          +0.094*[#   5]
    |psi|^2 = 0.992
==== e(   3) =   -10.13196 eV ==== 
     psi = 0.489*[#   2]+0.489*[#   6]
    |psi|^2 = 0.979
==== e(   4) =    -9.30941 eV ==== 
     psi = 0.374*[#   4]+0.374*[#   8]+0.125*[#   3]+0.125*[#   7]
    |psi|^2 = 0.997
==== e(   5) =     1.02790 eV ==== 
     psi = 0.013*[#   3]+0.013*[#   7]+0.004*[#   4]+0.004*[#   8]
    |psi|^2 = 0.035
==== e(   6) =     1.90380 eV ==== 
     psi = 0.013*[#   2]+0.013*[#   6]
    |psi|^2 = 0.027
==== e(   7) =     3.00752 eV ==== 
     psi = 0.464*[#   2]+0.464*[#   6]
    |psi|^2 = 0.927
==== e(   8) =     3.56449 eV ==== 
     psi = 0.044*[#   1]+0.044*[#   5]+0.018*[#   3]+0.018*[#   7]+0.006*[#   4]
          +0.006*[#   8]
    |psi|^2 = 0.134
==== e(   9) =     3.85571 eV ==== 
     psi = 0.176*[#   1]+0.176*[#   5]+0.154*[#   3]+0.154*[#   7]+0.051*[#   4]
          +0.051*[#   8]
    |psi|^2 = 0.763
==== e(  10) =     4.52817 eV ==== 
     psi = 0.009*[#   2]+0.009*[#   6]
    |psi|^2 = 0.018
==== e(  11) =     7.12375 eV ==== 
     psi = 0.003*[#   3]+0.003*[#   7]+0.001*[#   4]+0.001*[#   8]
    |psi|^2 = 0.010
==== e(  12) =     8.70238 eV ==== 
     psi = 0.003*[#   2]+0.003*[#   6]
    |psi|^2 = 0.005
==== e(  13) =     9.14390 eV ==== 
     psi = 0.347*[#   4]+0.347*[#   8]+0.116*[#   3]+0.116*[#   7]
    |psi|^2 = 0.925
==== e(  14) =    10.86060 eV ==== 
     psi = 0.284*[#   1]+0.284*[#   5]+0.103*[#   3]+0.103*[#   7]+0.034*[#   4]
          +0.034*[#   8]
    |psi|^2 = 0.842
==== e(  15) =    11.67598 eV ==== 
     psi = 0.002*[#   3]+0.002*[#   7]+0.002*[#   1]+0.002*[#   5]
    |psi|^2 = 0.010
==== e(  16) =    13.79021 eV ==== 
     psi = 0.004*[#   2]+0.004*[#   6]
    |psi|^2 = 0.008
==== e(  17) =    16.33237 eV ==== 
     psi = 0.008*[#   2]+0.008*[#   6]
    |psi|^2 = 0.017
==== e(  18) =    17.11386 eV ==== 
     psi = 0.002*[#   1]+0.002*[#   5]
    |psi|^2 = 0.006
==== e(  19) =    17.63238 eV ==== 
     psi = 0.015*[#   1]+0.015*[#   5]+0.012*[#   3]+0.012*[#   7]+0.004*[#   4]
          +0.004*[#   8]
    |psi|^2 = 0.062
==== e(  20) =    19.03255 eV ==== 
 
    |psi|^2 = 0.001
==== e(  21) =    19.34625 eV ==== 
 
    |psi|^2 = 0.000
==== e(  22) =    19.96753 eV ==== 
     psi = 0.007*[#   3]+0.007*[#   7]+0.006*[#   1]+0.006*[#   5]+0.002*[#   4]
          +0.002*[#   8]
    |psi|^2 = 0.032
==== e(  23) =    20.95188 eV ==== 
 
    |psi|^2 = 0.001
==== e(  24) =    21.84218 eV ==== 
     psi = 0.008*[#   1]+0.008*[#   3]+0.008*[#   5]+0.008*[#   7]+0.003*[#   4]
          +0.003*[#   8]
    |psi|^2 = 0.036
==== e(  25) =    22.55785 eV ==== 
 
    |psi|^2 = 0.002
==== e(  26) =    23.82035 eV ==== 
     psi = 0.002*[#   1]+0.002*[#   5]
    |psi|^2 = 0.006
==== e(  27) =    24.25235 eV ==== 
     psi = 0.003*[#   1]+0.003*[#   5]
    |psi|^2 = 0.007
==== e(  28) =    25.10278 eV ==== 
     psi = 0.002*[#   4]+0.002*[#   8]
    |psi|^2 = 0.005

 k =   0.2625000000  0.1515544457  0.0000000000
==== e(   1) =   -22.15151 eV ==== 
     psi = 0.339*[#   1]+0.339*[#   5]+0.114*[#   3]+0.114*[#   7]+0.038*[#   4]
          +0.038*[#   8]
    |psi|^2 = 0.981
==== e(   2) =   -12.01625 eV ==== 
     psi = 0.297*[#   3]+0.297*[#   7]+0.100*[#   1]+0.100*[#   5]+0.099*[#   4]
          +0.099*[#   8]
    |psi|^2 = 0.992
==== e(   3) =    -9.96033 eV ==== 
     psi = 0.490*[#   2]+0.490*[#   6]
    |psi|^2 = 0.981
==== e(   4) =    -9.43248 eV ==== 
     psi = 0.374*[#   4]+0.374*[#   8]+0.125*[#   3]+0.125*[#   7]
    |psi|^2 = 0.997
==== e(   5) =     1.23200 eV ==== 
     psi = 0.012*[#   3]+0.012*[#   7]+0.004*[#   4]+0.004*[#   8]
    |psi|^2 = 0.032
==== e(   6) =     2.08204 eV ==== 
     psi = 0.040*[#   2]+0.040*[#   6]
    |psi|^2 = 0.080
==== e(   7) =     2.69619 eV ==== 
     psi = 0.438*[#   2]+0.438*[#   6]
    |psi|^2 = 0.875
==== e(   8) =     3.66242 eV ==== 
     psi = 0.153*[#   1]+0.153*[#   5]+0.087*[#   3]+0.087*[#   7]+0.029*[#   4]
          +0.029*[#   8]
    |psi|^2 = 0.538
==== e(   9) =     3.91454 eV ==== 
     psi = 0.078*[#   1]+0.078*[#   5]+0.077*[#   3]+0.077*[#   7]+0.026*[#   4]
          +0.026*[#   8]
    |psi|^2 = 0.362
==== e(  10) =     4.72926 eV ==== 
     psi = 0.007*[#   2]+0.007*[#   6]
    |psi|^2 = 0.014
==== e(  11) =     7.32695 eV ==== 
     psi = 0.003*[#   3]+0.003*[#   7]
    |psi|^2 = 0.010
==== e(  12) =     8.89110 eV ==== 
     psi = 0.003*[#   2]+0.003*[#   6]
    |psi|^2 = 0.005
==== e(  13) =     9.55997 eV ==== 
     psi = 0.346*[#   4]+0.346*[#   8]+0.115*[#   3]+0.115*[#   7]
    |psi|^2 = 0.924
==== e(  14) =    11.05186 eV ==== 
     psi = 0.267*[#   1]+0.267*[#   5]+0.105*[#   3]+0.105*[#   7]+0.035*[#   4]
          +0.035*[#   8]
    |psi|^2 = 0.813
==== e(  15) =    11.87670 eV ==== 
     psi = 0.002*[#   3]+0.002*[#   7]+0.002*[#   1]+0.002*[#   5]
    |psi|^2 = 0.010
==== e(  16) =    13.84398 eV ==== 
     psi = 0.005*[#   2]+0.005*[#   6]
    |psi|^2 = 0.011
==== e(  17) =    16.08128 eV ==== 
     psi = 0.007*[#   2]+0.007*[#   6]
    |psi|^2 = 0.015
==== e(  18) =    17.05375 eV ==== 
     psi = 0.018*[#   1]+0.018*[#   5]+0.014*[#   3]+0.014*[#   7]+0.005*[#   4]
          +0.005*[#   8]
    |psi|^2 = 0.073
==== e(  19) =    17.36769 eV ==== 
     psi = 0.002*[#   1]+0.002*[#   5]+0.001*[#   3]+0.001*[#   7]
    |psi|^2 = 0.008
==== e(  20) =    18.53846 eV ==== 
 
    |psi|^2 = 0.002
==== e(  21) =    19.15403 eV ==== 
 
    |psi|^2 = 0.000
==== e(  22) =    19.45145 eV ==== 
     psi = 0.008*[#   3]+0.008*[#   7]+0.007*[#   1]+0.007*[#   5]+0.003*[#   4]
          +0.003*[#   8]
    |psi|^2 = 0.036
==== e(  23) =    20.66183 eV ==== 
 
    |psi|^2 = 0.000
==== e(  24) =    21.76907 eV ==== 
     psi = 0.011*[#   3]+0.011*[#   7]+0.009*[#   1]+0.009*[#   5]+0.004*[#   4]
          +0.004*[#   8]
    |psi|^2 = 0.047
==== e(  25) =    22.39847 eV ==== 
     psi = 0.001*[#   2]+0.001*[#   6]
    |psi|^2 = 0.002
==== e(  26) =    23.48205 eV ==== 
     psi = 0.005*[#   1]+0.005*[#   5]
    |psi|^2 = 0.011
==== e(  27) =    24.34992 eV ==== 
     psi = 0.001*[#   1]
    |psi|^2 = 0.005
==== e(  28) =    24.90059 eV ==== 
     psi = 0.002*[#   4]+0.002*[#   8]
    |psi|^2 = 0.005

 k =   0.2750000000  0.1587713240  0.0000000000
==== e(   1) =   -21.99623 eV ==== 
     psi = 0.332*[#   1]+0.332*[#   5]+0.119*[#   3]+0.119*[#   7]+0.040*[#   4]
          +0.040*[#   8]
    |psi|^2 = 0.981
==== e(   2) =   -12.34735 eV ==== 
     psi = 0.293*[#   3]+0.293*[#   7]+0.105*[#   1]+0.105*[#   5]+0.098*[#   4]
          +0.098*[#   8]
    |psi|^2 = 0.992
==== e(   3) =    -9.78168 eV ==== 
     psi = 0.492*[#   2]+0.492*[#   6]
    |psi|^2 = 0.983
==== e(   4) =    -9.55154 eV ==== 
     psi = 0.374*[#   4]+0.374*[#   8]+0.125*[#   3]+0.125*[#   7]
    |psi|^2 = 0.997
==== e(   5) =     1.44582 eV ==== 
     psi = 0.011*[#   3]+0.011*[#   7]+0.004*[#   4]+0.004*[#   8]
    |psi|^2 = 0.029
==== e(   6) =     2.14253 eV ==== 
     psi = 0.263*[#   2]+0.263*[#   6]
    |psi|^2 = 0.525
==== e(   7) =     2.50788 eV ==== 
     psi = 0.215*[#   2]+0.215*[#   6]
    |psi|^2 = 0.430
==== e(   8) =     3.65875 eV ==== 
     psi = 0.221*[#   1]+0.221*[#   5]+0.128*[#   3]+0.128*[#   7]+0.043*[#   4]
          +0.043*[#   8]
    |psi|^2 = 0.782
==== e(   9) =     4.08481 eV ==== 
     psi = 0.028*[#   3]+0.028*[#   7]+0.022*[#   1]+0.022*[#   5]+0.009*[#   4]
          +0.009*[#   8]
    |psi|^2 = 0.119
==== e(  10) =     4.94086 eV ==== 
     psi = 0.006*[#   2]+0.006*[#   6]
    |psi|^2 = 0.012
==== e(  11) =     7.53987 eV ==== 
     psi = 0.003*[#   3]+0.003*[#   7]
    |psi|^2 = 0.009
==== e(  12) =     9.08724 eV ==== 
     psi = 0.003*[#   2]+0.003*[#   6]
    |psi|^2 = 0.005
==== e(  13) =     9.98114 eV ==== 
     psi = 0.346*[#   4]+0.346*[#   8]+0.115*[#   3]+0.115*[#   7]
    |psi|^2 = 0.923
==== e(  14) =    11.22642 eV ==== 
     psi = 0.248*[#   1]+0.248*[#   5]+0.105*[#   3]+0.105*[#   7]+0.035*[#   4]
          +0.035*[#   8]
    |psi|^2 = 0.777
==== e(  15) =    12.08608 eV ==== 
     psi = 0.002*[#   3]+0.002*[#   7]+0.002*[#   1]+0.002*[#   5]
    |psi|^2 = 0.009
==== e(  16) =    13.85873 eV ==== 
     psi = 0.007*[#   2]+0.007*[#   6]
    |psi|^2 = 0.014
==== e(  17) =    15.86076 eV ==== 
     psi = 0.006*[#   2]+0.006*[#   6]
    |psi|^2 = 0.011
==== e(  18) =    16.58538 eV ==== 
     psi = 0.024*[#   1]+0.024*[#   5]+0.018*[#   3]+0.018*[#   7]+0.006*[#   4]
          +0.006*[#   8]
    |psi|^2 = 0.097
==== e(  19) =    17.53019 eV ==== 
 
    |psi|^2 = 0.001
==== e(  20) =    18.05979 eV ==== 
     psi = 0.001*[#   2]+0.001*[#   6]
    |psi|^2 = 0.003
==== e(  21) =    18.92693 eV ==== 
     psi = 0.009*[#   3]+0.009*[#   7]+0.009*[#   1]+0.009*[#   5]+0.003*[#   4]
          +0.003*[#   8]
    |psi|^2 = 0.042
==== e(  22) =    18.97124 eV ==== 
 
    |psi|^2 = 0.000
==== e(  23) =    20.29441 eV ==== 
 
    |psi|^2 = 0.000
==== e(  24) =    21.62502 eV ==== 
     psi = 0.014*[#   3]+0.014*[#   7]+0.010*[#   1]+0.010*[#   5]+0.005*[#   4]
          +0.005*[#   8]
    |psi|^2 = 0.056
==== e(  25) =    22.33671 eV ==== 
     psi = 0.001*[#   2]+0.001*[#   6]
    |psi|^2 = 0.002
==== e(  26) =    23.15252 eV ==== 
     psi = 0.007*[#   1]+0.007*[#   5]+0.001*[#   3]+0.001*[#   7]
    |psi|^2 = 0.016
==== e(  27) =    24.53222 eV ==== 
     psi = 0.001*[#   3]+0.001*[#   7]
    |psi|^2 = 0.004
==== e(  28) =    24.61863 eV ==== 
 
    |psi|^2 = 0.001

 k =   0.2875000000  0.1659882024  0.0000000000
==== e(   1) =   -21.83413 eV ==== 
     psi = 0.325*[#   1]+0.325*[#   5]+0.124*[#   3]+0.124*[#   7]+0.041*[#   4]
          +0.041*[#   8]
    |psi|^2 = 0.981
==== e(   2) =   -12.67894 eV ==== 
     psi = 0.289*[#   3]+0.289*[#   7]+0.110*[#   1]+0.110*[#   5]+0.096*[#   4]
          +0.096*[#   8]
    |psi|^2 = 0.991
==== e(   3) =    -9.66615 eV ==== 
     psi = 0.374*[#   4]+0.374*[#   8]+0.125*[#   3]+0.125*[#   7]
    |psi|^2 = 0.997
==== e(   4) =    -9.59633 eV ==== 
     psi = 0.493*[#   2]+0.493*[#   6]
    |psi|^2 = 0.985
==== e(   5) =     1.66926 eV ==== 
     psi = 0.009*[#   3]+0.009*[#   7]+0.003*[#   4]+0.003*[#   8]
    |psi|^2 = 0.026
==== e(   6) =     1.89940 eV ==== 
     psi = 0.434*[#   2]+0.434*[#   6]
    |psi|^2 = 0.868
==== e(   7) =     2.63006 eV ==== 
     psi = 0.043*[#   2]+0.043*[#   6]
    |psi|^2 = 0.086
==== e(   8) =     3.62330 eV ==== 
     psi = 0.244*[#   1]+0.244*[#   5]+0.134*[#   3]+0.134*[#   7]+0.045*[#   4]
          +0.045*[#   8]
    |psi|^2 = 0.845
==== e(   9) =     4.29730 eV ==== 
     psi = 0.015*[#   3]+0.015*[#   7]+0.009*[#   1]+0.009*[#   5]+0.005*[#   4]
          +0.005*[#   8]
    |psi|^2 = 0.057
==== e(  10) =     5.16245 eV ==== 
     psi = 0.005*[#   2]+0.005*[#   6]
    |psi|^2 = 0.010
==== e(  11) =     7.76248 eV ==== 
     psi = 0.002*[#   3]+0.002*[#   7]
    |psi|^2 = 0.008
==== e(  12) =     9.29027 eV ==== 
     psi = 0.003*[#   2]+0.003*[#   6]
    |psi|^2 = 0.006
==== e(  13) =    10.40587 eV ==== 
     psi = 0.346*[#   4]+0.346*[#   8]+0.115*[#   3]+0.115*[#   7]
    |psi|^2 = 0.922
==== e(  14) =    11.37628 eV ==== 
     psi = 0.228*[#   1]+0.228*[#   5]+0.104*[#   3]+0.104*[#   7]+0.035*[#   4]
          +0.035*[#   8]
    |psi|^2 = 0.732
==== e(  15) =    12.30386 eV ==== 
     psi = 0.002*[#   3]+0.002*[#   7]+0.001*[#   1]+0.001*[#   5]
    |psi|^2 = 0.007
==== e(  16) =    13.82005 eV ==== 
     psi = 0.009*[#   2]+0.009*[#   6]
    |psi|^2 = 0.018
==== e(  17) =    15.67476 eV ==== 
     psi = 0.004*[#   2]+0.004*[#   6]
    |psi|^2 = 0.007
==== e(  18) =    16.11307 eV ==== 
     psi = 0.029*[#   1]+0.029*[#   5]+0.023*[#   3]+0.023*[#   7]+0.008*[#   4]
          +0.008*[#   8]
    |psi|^2 = 0.119
==== e(  19) =    17.60997 eV ==== 
     psi = 0.002*[#   2]+0.002*[#   6]
    |psi|^2 = 0.004
==== e(  20) =    17.71647 eV ==== 
     psi = 0.001*[#   1]+0.001*[#   5]
    |psi|^2 = 0.004
==== e(  21) =    18.41455 eV ==== 
     psi = 0.011*[#   1]+0.011*[#   5]+0.011*[#   3]+0.011*[#   7]+0.004*[#   4]
          +0.004*[#   8]
    |psi|^2 = 0.050
==== e(  22) =    18.79800 eV ==== 
 
    |psi|^2 = 0.000
==== e(  23) =    19.88954 eV ==== 
 
    |psi|^2 = 0.000
==== e(  24) =    21.36800 eV ==== 
     psi = 0.015*[#   3]+0.015*[#   7]+0.010*[#   1]+0.010*[#   5]+0.005*[#   4]
          +0.005*[#   8]
    |psi|^2 = 0.061
==== e(  25) =    22.31301 eV ==== 
 
    |psi|^2 = 0.002
==== e(  26) =    22.93258 eV ==== 
     psi = 0.009*[#   1]+0.009*[#   5]+0.003*[#   3]+0.003*[#   7]+0.001*[#   4]
          +0.001*[#   8]
    |psi|^2 = 0.026
==== e(  27) =    24.28469 eV ==== 
 
    |psi|^2 = 0.000
==== e(  28) =    24.52494 eV ==== 
     psi = 0.002*[#   4]+0.002*[#   8]
    |psi|^2 = 0.005

 k =   0.3000000000  0.1732050808  0.0000000000
==== e(   1) =   -21.66527 eV ==== 
     psi = 0.318*[#   1]+0.318*[#   5]+0.129*[#   3]+0.129*[#   7]+0.043*[#   4]
          +0.043*[#   8]
    |psi|^2 = 0.981
==== e(   2) =   -13.01034 eV ==== 
     psi = 0.285*[#   3]+0.285*[#   7]+0.115*[#   1]+0.115*[#   5]+0.095*[#   4]
          +0.095*[#   8]
    |psi|^2 = 0.991
==== e(   3) =    -9.77592 eV ==== 
     psi = 0.374*[#   4]+0.374*[#   8]+0.125*[#   3]+0.125*[#   7]
    |psi|^2 = 0.997
==== e(   4) =    -9.40464 eV ==== 
     psi = 0.493*[#   2]+0.493*[#   6]
    |psi|^2 = 0.987
==== e(   5) =     1.57216 eV ==== 
     psi = 0.458*[#   2]+0.458*[#   6]
    |psi|^2 = 0.917
==== e(   6) =     1.90216 eV ==== 
     psi = 0.008*[#   3]+0.008*[#   7]+0.003*[#   4]+0.003*[#   8]
    |psi|^2 = 0.023
==== e(   7) =     2.84457 eV ==== 
     psi = 0.018*[#   2]+0.018*[#   6]
    |psi|^2 = 0.036
==== e(   8) =     3.58091 eV ==== 
     psi = 0.258*[#   1]+0.258*[#   5]+0.132*[#   3]+0.132*[#   7]+0.044*[#   4]
          +0.044*[#   8]
    |psi|^2 = 0.869
==== e(   9) =     4.52777 eV ==== 
     psi = 0.010*[#   3]+0.010*[#   7]+0.005*[#   1]+0.005*[#   5]+0.003*[#   4]
          +0.003*[#   8]
    |psi|^2 = 0.035
==== e(  10) =     5.39376 eV ==== 
     psi = 0.004*[#   2]+0.004*[#   6]
    |psi|^2 = 0.009
==== e(  11) =     7.99472 eV ==== 
     psi = 0.002*[#   3]+0.002*[#   7]
    |psi|^2 = 0.007
==== e(  12) =     9.49946 eV ==== 
     psi = 0.003*[#   2]+0.003*[#   6]
    |psi|^2 = 0.006
==== e(  13) =    10.83248 eV ==== 
     psi = 0.346*[#   4]+0.346*[#   8]+0.115*[#   3]+0.115*[#   7]
    |psi|^2 = 0.922
==== e(  14) =    11.49091 eV ==== 
     psi = 0.205*[#   1]+0.205*[#   5]+0.099*[#   3]+0.099*[#   7]+0.033*[#   4]
          +0.033*[#   8]
    |psi|^2 = 0.674
==== e(  15) =    12.52979 eV ==== 
     psi = 0.001*[#   3]+0.001*[#   7]
    |psi|^2 = 0.004
==== e(  16) =    13.71741 eV ==== 
     psi = 0.011*[#   2]+0.011*[#   6]
    |psi|^2 = 0.021
==== e(  17) =    15.51774 eV ==== 
     psi = 0.001*[#   2]+0.001*[#   6]
    |psi|^2 = 0.003
==== e(  18) =    15.66631 eV ==== 
     psi = 0.037*[#   1]+0.037*[#   5]+0.028*[#   3]+0.028*[#   7]+0.009*[#   4]
          +0.009*[#   8]
    |psi|^2 = 0.148
==== e(  19) =    17.20334 eV ==== 
     psi = 0.002*[#   2]+0.002*[#   6]
    |psi|^2 = 0.005
==== e(  20) =    17.78443 eV ==== 
     psi = 0.010*[#   1]+0.010*[#   5]+0.010*[#   3]+0.010*[#   7]+0.003*[#   4]
          +0.003*[#   8]
    |psi|^2 = 0.048
==== e(  21) =    18.04214 eV ==== 
     psi = 0.005*[#   1]+0.005*[#   5]+0.004*[#   3]+0.004*[#   7]+0.001*[#   4]
          +0.001*[#   8]
    |psi|^2 = 0.021
==== e(  22) =    18.63437 eV ==== 
 
    |psi|^2 = 0.000
==== e(  23) =    19.47910 eV ==== 
 
    |psi|^2 = 0.001
==== e(  24) =    21.01073 eV ==== 
     psi = 0.016*[#   3]+0.016*[#   7]+0.011*[#   1]+0.011*[#   5]+0.005*[#   4]
          +0.005*[#   8]
    |psi|^2 = 0.064
==== e(  25) =    22.26805 eV ==== 
 
    |psi|^2 = 0.001
==== e(  26) =    22.81091 eV ==== 
     psi = 0.011*[#   1]+0.011*[#   5]+0.006*[#   3]+0.006*[#   7]+0.002*[#   4]
          +0.002*[#   8]
    |psi|^2 = 0.038
==== e(  27) =    24.00437 eV ==== 
 
    |psi|^2 = 0.000
==== e(  28) =    24.35138 eV ==== 
     psi = 0.002*[#   4]+0.002*[#   8]
    |psi|^2 = 0.006

 k =   0.3125000000  0.1804219591  0.0000000000
==== e(   1) =   -21.48975 eV ==== 
     psi = 0.312*[#   1]+0.312*[#   5]+0.134*[#   3]+0.134*[#   7]+0.045*[#   4]
          +0.045*[#   8]
    |psi|^2 = 0.981
==== e(   2) =   -13.34090 eV ==== 
     psi = 0.281*[#   3]+0.281*[#   7]+0.120*[#   1]+0.120*[#   5]+0.094*[#   4]
          +0.094*[#   8]
    |psi|^2 = 0.991
==== e(   3) =    -9.88048 eV ==== 
     psi = 0.374*[#   4]+0.374*[#   8]+0.125*[#   3]+0.125*[#   7]
    |psi|^2 = 0.997
==== e(   4) =    -9.20707 eV ==== 
     psi = 0.494*[#   2]+0.494*[#   6]
    |psi|^2 = 0.989
==== e(   5) =     1.23152 eV ==== 
     psi = 0.465*[#   2]+0.465*[#   6]
    |psi|^2 = 0.930
==== e(   6) =     2.14426 eV ==== 
     psi = 0.006*[#   3]+0.006*[#   7]+0.002*[#   4]+0.002*[#   8]
    |psi|^2 = 0.019
==== e(   7) =     3.08197 eV ==== 
     psi = 0.011*[#   2]+0.011*[#   6]
    |psi|^2 = 0.023
==== e(   8) =     3.53740 eV ==== 
     psi = 0.269*[#   1]+0.269*[#   5]+0.129*[#   3]+0.129*[#   7]+0.043*[#   4]
          +0.043*[#   8]
    |psi|^2 = 0.881
==== e(   9) =     4.77108 eV ==== 
     psi = 0.007*[#   3]+0.007*[#   7]+0.003*[#   1]+0.003*[#   5]+0.002*[#   4]
          +0.002*[#   8]
    |psi|^2 = 0.025
==== e(  10) =     5.63458 eV ==== 
     psi = 0.004*[#   2]+0.004*[#   6]
    |psi|^2 = 0.008
==== e(  11) =     8.23655 eV ==== 
     psi = 0.002*[#   3]+0.002*[#   7]
    |psi|^2 = 0.006
==== e(  12) =     9.71378 eV ==== 
     psi = 0.003*[#   2]+0.003*[#   6]
    |psi|^2 = 0.006
==== e(  13) =    11.25918 eV ==== 
     psi = 0.346*[#   4]+0.346*[#   8]+0.115*[#   3]+0.115*[#   7]
    |psi|^2 = 0.922
==== e(  14) =    11.55708 eV ==== 
     psi = 0.179*[#   1]+0.179*[#   5]+0.091*[#   3]+0.091*[#   7]+0.030*[#   4]
          +0.030*[#   8]
    |psi|^2 = 0.601
==== e(  15) =    12.76367 eV ==== 
 
    |psi|^2 = 0.002
==== e(  16) =    13.54965 eV ==== 
     psi = 0.012*[#   2]+0.012*[#   6]
    |psi|^2 = 0.023
==== e(  17) =    15.25458 eV ==== 
     psi = 0.045*[#   1]+0.045*[#   5]+0.034*[#   3]+0.034*[#   7]+0.011*[#   4]
          +0.011*[#   8]
    |psi|^2 = 0.182
==== e(  18) =    15.36822 eV ==== 
 
    |psi|^2 = 0.001
==== e(  19) =    16.85709 eV ==== 
     psi = 0.003*[#   2]+0.003*[#   6]
    |psi|^2 = 0.005
==== e(  20) =    17.36994 eV ==== 
     psi = 0.020*[#   1]+0.020*[#   5]+0.018*[#   3]+0.018*[#   7]+0.006*[#   4]
          +0.006*[#   8]
    |psi|^2 = 0.088
==== e(  21) =    18.17756 eV ==== 
     psi = 0.001*[#   1]+0.001*[#   5]
    |psi|^2 = 0.003
==== e(  22) =    18.48042 eV ==== 
 
    |psi|^2 = 0.000
==== e(  23) =    19.08502 eV ==== 
 
    |psi|^2 = 0.002
==== e(  24) =    20.59737 eV ==== 
     psi = 0.017*[#   3]+0.017*[#   7]+0.012*[#   1]+0.012*[#   5]+0.006*[#   4]
          +0.006*[#   8]
    |psi|^2 = 0.069
==== e(  25) =    22.14839 eV ==== 
 
    |psi|^2 = 0.001
==== e(  26) =    22.74123 eV ==== 
     psi = 0.013*[#   1]+0.013*[#   5]+0.010*[#   3]+0.010*[#   7]+0.003*[#   4]
          +0.003*[#   8]
    |psi|^2 = 0.052
==== e(  27) =    23.82299 eV ==== 
 
    |psi|^2 = 0.000
==== e(  28) =    24.18727 eV ==== 
     psi = 0.002*[#   4]+0.002*[#   8]
    |psi|^2 = 0.006

 k =   0.3250000000  0.1876388375  0.0000000000
==== e(   1) =   -21.30766 eV ==== 
     psi = 0.306*[#   1]+0.306*[#   5]+0.139*[#   3]+0.139*[#   7]+0.046*[#   4]
          +0.046*[#   8]
    |psi|^2 = 0.982
==== e(   2) =   -13.67002 eV ==== 
     psi = 0.278*[#   3]+0.278*[#   7]+0.125*[#   1]+0.125*[#   5]+0.093*[#   4]
          +0.093*[#   8]
    |psi|^2 = 0.990
==== e(   3) =    -9.97952 eV ==== 
     psi = 0.374*[#   4]+0.374*[#   8]+0.125*[#   3]+0.125*[#   7]
    |psi|^2 = 0.997
==== e(   4) =    -9.00412 eV ==== 
     psi = 0.495*[#   2]+0.495*[#   6]
    |psi|^2 = 0.990
==== e(   5) =     0.88794 eV ==== 
     psi = 0.468*[#   2]+0.468*[#   6]
    |psi|^2 = 0.935
==== e(   6) =     2.39505 eV ==== 
     psi = 0.005*[#   3]+0.005*[#   7]+0.002*[#   1]+0.002*[#   5]+0.002*[#   4]
          +0.002*[#   8]
[...]
    |psi|^2 = 0.905
==== e(  10) =     4.97312 eV ==== 
     psi = 0.444*[#   4]+0.444*[#   8]+0.016*[#   1]+0.016*[#   5]+0.013*[#   3]
          +0.013*[#   7]
    |psi|^2 = 0.947
==== e(  11) =     5.45436 eV ==== 
     psi = 0.009*[#   3]+0.009*[#   7]
    |psi|^2 = 0.018
==== e(  12) =     6.34759 eV ==== 
     psi = 0.492*[#   2]+0.492*[#   6]
    |psi|^2 = 0.985
==== e(  13) =     7.11831 eV ==== 
     psi = 0.003*[#   2]+0.003*[#   6]
    |psi|^2 = 0.006
==== e(  14) =     8.69521 eV ==== 
     psi = 0.450*[#   1]+0.450*[#   5]+0.028*[#   3]+0.028*[#   7]+0.009*[#   4]
          +0.009*[#   8]
    |psi|^2 = 0.972
==== e(  15) =    10.01502 eV ==== 
     psi = 0.001*[#   3]+0.001*[#   7]
    |psi|^2 = 0.003
==== e(  16) =    12.66061 eV ==== 
     psi = 0.001*[#   2]+0.001*[#   6]
    |psi|^2 = 0.003
==== e(  17) =    15.54222 eV ==== 
 
    |psi|^2 = 0.001
==== e(  18) =    18.95310 eV ==== 
     psi = 0.002*[#   3]+0.002*[#   7]+0.002*[#   1]+0.002*[#   5]
    |psi|^2 = 0.009
==== e(  19) =    19.09135 eV ==== 
 
    |psi|^2 = 0.001
==== e(  20) =    21.55577 eV ==== 
 
    |psi|^2 = 0.000
==== e(  21) =    22.30105 eV ==== 
 
    |psi|^2 = 0.000
==== e(  22) =    22.69586 eV ==== 
     psi = 0.005*[#   2]+0.005*[#   6]
    |psi|^2 = 0.010
==== e(  23) =    25.38519 eV ==== 
 
    |psi|^2 = 0.000
==== e(  24) =    26.18387 eV ==== 
     psi = 0.003*[#   1]+0.003*[#   5]
    |psi|^2 = 0.007
==== e(  25) =    26.61097 eV ==== 
 
    |psi|^2 = 0.001
==== e(  26) =    27.56172 eV ==== 
 
    |psi|^2 = 0.000
==== e(  27) =    27.73533 eV ==== 
 
    |psi|^2 = 0.000
==== e(  28) =    28.75920 eV ==== 
 
    |psi|^2 = 0.000

 k =   0.1000000000  0.0000000000  0.0000000000
==== e(   1) =   -23.58569 eV ==== 
     psi = 0.462*[#   1]+0.462*[#   5]+0.030*[#   3]+0.030*[#   7]
    |psi|^2 = 0.984
==== e(   2) =   -11.64736 eV ==== 
     psi = 0.476*[#   2]+0.476*[#   6]
    |psi|^2 = 0.951
==== e(   3) =    -7.98306 eV ==== 
     psi = 0.465*[#   3]+0.465*[#   7]+0.017*[#   1]+0.017*[#   5]+0.017*[#   4]
          +0.017*[#   8]
    |psi|^2 = 0.997
==== e(   4) =    -7.68261 eV ==== 
     psi = 0.480*[#   4]+0.480*[#   8]+0.017*[#   3]+0.017*[#   7]+0.001*[#   1]
          +0.001*[#   5]
    |psi|^2 = 0.997
==== e(   5) =    -0.73006 eV ==== 
     psi = 0.010*[#   3]+0.010*[#   7]+0.001*[#   1]+0.001*[#   5]
    |psi|^2 = 0.022
==== e(   6) =     0.15184 eV ==== 
     psi = 0.012*[#   2]+0.012*[#   6]
    |psi|^2 = 0.024
==== e(   7) =     1.84207 eV ==== 
     psi = 0.001*[#   3]+0.001*[#   7]
    |psi|^2 = 0.004
==== e(   8) =     2.76017 eV ==== 
     psi = 0.007*[#   2]+0.007*[#   6]
    |psi|^2 = 0.014
==== e(   9) =     4.18876 eV ==== 
     psi = 0.409*[#   3]+0.409*[#   7]+0.031*[#   1]+0.031*[#   5]+0.017*[#   4]
          +0.017*[#   8]
    |psi|^2 = 0.915
==== e(  10) =     4.76239 eV ==== 
     psi = 0.453*[#   4]+0.453*[#   8]+0.012*[#   3]+0.012*[#   7]+0.009*[#   1]
          +0.009*[#   5]
    |psi|^2 = 0.947
==== e(  11) =     5.36561 eV ==== 
     psi = 0.007*[#   3]+0.007*[#   7]
    |psi|^2 = 0.015
==== e(  12) =     6.55516 eV ==== 
     psi = 0.494*[#   2]+0.494*[#   6]
    |psi|^2 = 0.987
==== e(  13) =     7.03503 eV ==== 
     psi = 0.003*[#   2]+0.003*[#   6]
    |psi|^2 = 0.006
==== e(  14) =     8.56161 eV ==== 
     psi = 0.462*[#   1]+0.462*[#   5]+0.020*[#   3]+0.020*[#   7]+0.005*[#   4]
          +0.005*[#   8]
    |psi|^2 = 0.974
==== e(  15) =     9.92823 eV ==== 
 
    |psi|^2 = 0.002
==== e(  16) =    12.58699 eV ==== 
     psi = 0.001*[#   2]+0.001*[#   6]
    |psi|^2 = 0.003
==== e(  17) =    15.45720 eV ==== 
 
    |psi|^2 = 0.001
==== e(  18) =    18.77495 eV ==== 
     psi = 0.002*[#   3]+0.002*[#   7]+0.001*[#   1]+0.001*[#   5]
    |psi|^2 = 0.007
==== e(  19) =    19.12497 eV ==== 
 
    |psi|^2 = 0.001
==== e(  20) =    22.02250 eV ==== 
 
    |psi|^2 = 0.000
==== e(  21) =    22.21606 eV ==== 
 
    |psi|^2 = 0.000
==== e(  22) =    22.92932 eV ==== 
     psi = 0.004*[#   2]+0.004*[#   6]
    |psi|^2 = 0.008
==== e(  23) =    25.33830 eV ==== 
 
    |psi|^2 = 0.000
==== e(  24) =    26.88145 eV ==== 
     psi = 0.002*[#   1]+0.002*[#   5]
    |psi|^2 = 0.006
==== e(  25) =    27.28297 eV ==== 
 
    |psi|^2 = 0.001
==== e(  26) =    27.90659 eV ==== 
 
    |psi|^2 = 0.000
==== e(  27) =    28.41542 eV ==== 
 
    |psi|^2 = 0.000
==== e(  28) =    29.07960 eV ==== 
 
    |psi|^2 = 0.000

 k =   0.0833333333  0.0000000000  0.0000000000
==== e(   1) =   -23.63968 eV ==== 
     psi = 0.470*[#   1]+0.470*[#   5]+0.021*[#   3]+0.021*[#   7]
    |psi|^2 = 0.984
==== e(   2) =   -11.71185 eV ==== 
     psi = 0.475*[#   2]+0.475*[#   6]
    |psi|^2 = 0.950
==== e(   3) =    -7.78581 eV ==== 
     psi = 0.474*[#   3]+0.474*[#   7]+0.012*[#   1]+0.012*[#   4]+0.012*[#   5]
          +0.012*[#   8]
    |psi|^2 = 0.997
==== e(   4) =    -7.56799 eV ==== 
     psi = 0.485*[#   4]+0.485*[#   8]+0.013*[#   3]+0.013*[#   7]
    |psi|^2 = 0.997
==== e(   5) =    -0.80342 eV ==== 
     psi = 0.007*[#   3]+0.007*[#   7]+0.002*[#   1]+0.002*[#   5]
    |psi|^2 = 0.018
==== e(   6) =     0.07781 eV ==== 
     psi = 0.013*[#   2]+0.013*[#   6]
    |psi|^2 = 0.025
==== e(   7) =     1.76824 eV ==== 
 
    |psi|^2 = 0.004
==== e(   8) =     2.68690 eV ==== 
     psi = 0.007*[#   2]+0.007*[#   6]
    |psi|^2 = 0.014
==== e(   9) =     4.15137 eV ==== 
     psi = 0.427*[#   3]+0.427*[#   7]+0.023*[#   1]+0.023*[#   5]+0.012*[#   4]
          +0.012*[#   8]
    |psi|^2 = 0.924
==== e(  10) =     4.56897 eV ==== 
     psi = 0.460*[#   4]+0.460*[#   8]+0.010*[#   3]+0.010*[#   7]+0.004*[#   1]
          +0.004*[#   5]
    |psi|^2 = 0.948
==== e(  11) =     5.29020 eV ==== 
     psi = 0.006*[#   3]+0.006*[#   7]
    |psi|^2 = 0.012
==== e(  12) =     6.73482 eV ==== 
     psi = 0.495*[#   2]+0.495*[#   6]
    |psi|^2 = 0.989
==== e(  13) =     6.96442 eV ==== 
     psi = 0.003*[#   2]+0.003*[#   6]
    |psi|^2 = 0.006
==== e(  14) =     8.45378 eV ==== 
     psi = 0.472*[#   1]+0.472*[#   5]+0.014*[#   3]+0.014*[#   7]+0.002*[#   4]
          +0.002*[#   8]
    |psi|^2 = 0.976
==== e(  15) =     9.85466 eV ==== 
 
    |psi|^2 = 0.002
==== e(  16) =    12.52390 eV ==== 
     psi = 0.001*[#   2]+0.001*[#   6]
    |psi|^2 = 0.003
==== e(  17) =    15.38500 eV ==== 
 
    |psi|^2 = 0.001
==== e(  18) =    18.61584 eV ==== 
     psi = 0.001*[#   3]+0.001*[#   7]+0.001*[#   1]+0.001*[#   5]
    |psi|^2 = 0.005
==== e(  19) =    19.12919 eV ==== 
 
    |psi|^2 = 0.001
==== e(  20) =    22.14448 eV ==== 
 
    |psi|^2 = 0.000
==== e(  21) =    22.51067 eV ==== 
 
    |psi|^2 = 0.000
==== e(  22) =    23.16256 eV ==== 
     psi = 0.003*[#   2]+0.003*[#   6]
    |psi|^2 = 0.006
==== e(  23) =    25.32109 eV ==== 
 
    |psi|^2 = 0.000
==== e(  24) =    27.59049 eV ==== 
     psi = 0.002*[#   1]+0.002*[#   5]
    |psi|^2 = 0.005
==== e(  25) =    27.96621 eV ==== 
 
    |psi|^2 = 0.001
==== e(  26) =    28.00290 eV ==== 
 
    |psi|^2 = 0.000
==== e(  27) =    28.68893 eV ==== 
 
    |psi|^2 = 0.001
==== e(  28) =    29.11528 eV ==== 
 
    |psi|^2 = 0.000

 k =   0.0666666667  0.0000000000  0.0000000000
==== e(   1) =   -23.68388 eV ==== 
     psi = 0.478*[#   1]+0.478*[#   5]+0.014*[#   3]+0.014*[#   7]
    |psi|^2 = 0.984
==== e(   2) =   -11.76468 eV ==== 
     psi = 0.474*[#   2]+0.474*[#   6]
    |psi|^2 = 0.948
==== e(   3) =    -7.61747 eV ==== 
     psi = 0.482*[#   3]+0.482*[#   7]+0.008*[#   4]+0.008*[#   8]+0.008*[#   1]
          +0.008*[#   5]
    |psi|^2 = 0.997
==== e(   4) =    -7.47284 eV ==== 
     psi = 0.490*[#   4]+0.490*[#   8]+0.008*[#   3]+0.008*[#   7]
    |psi|^2 = 0.997
==== e(   5) =    -0.86344 eV ==== 
     psi = 0.005*[#   3]+0.005*[#   7]+0.002*[#   1]+0.002*[#   5]
    |psi|^2 = 0.015
==== e(   6) =     0.01722 eV ==== 
     psi = 0.013*[#   2]+0.013*[#   6]
    |psi|^2 = 0.026
==== e(   7) =     1.70785 eV ==== 
     psi = 0.001*[#   1]+0.001*[#   5]
    |psi|^2 = 0.003
==== e(   8) =     2.62692 eV ==== 
     psi = 0.007*[#   2]+0.007*[#   6]
    |psi|^2 = 0.015
==== e(   9) =     4.12184 eV ==== 
     psi = 0.443*[#   3]+0.443*[#   7]+0.015*[#   1]+0.015*[#   5]+0.008*[#   4]
          +0.008*[#   8]
    |psi|^2 = 0.932
==== e(  10) =     4.39966 eV ==== 
     psi = 0.466*[#   4]+0.466*[#   8]+0.007*[#   3]+0.007*[#   7]+0.002*[#   1]
          +0.002*[#   5]
    |psi|^2 = 0.949
==== e(  11) =     5.22827 eV ==== 
     psi = 0.004*[#   3]+0.004*[#   7]
    |psi|^2 = 0.009
==== e(  12) =     6.88466 eV ==== 
     psi = 0.496*[#   2]+0.496*[#   6]
    |psi|^2 = 0.991
==== e(  13) =     6.90656 eV ==== 
     psi = 0.003*[#   2]+0.003*[#   6]
    |psi|^2 = 0.007
==== e(  14) =     8.36915 eV ==== 
     psi = 0.479*[#   1]+0.479*[#   5]+0.009*[#   3]+0.009*[#   7]
    |psi|^2 = 0.977
==== e(  15) =     9.79439 eV ==== 
 
    |psi|^2 = 0.002
==== e(  16) =    12.47179 eV ==== 
     psi = 0.001*[#   2]+0.001*[#   6]
    |psi|^2 = 0.003
==== e(  17) =    15.32572 eV ==== 
 
    |psi|^2 = 0.001
==== e(  18) =    18.48015 eV ==== 
 
    |psi|^2 = 0.003
==== e(  19) =    19.12023 eV ==== 
 
    |psi|^2 = 0.001
==== e(  20) =    22.08613 eV ==== 
 
    |psi|^2 = 0.000
==== e(  21) =    22.98261 eV ==== 
 
    |psi|^2 = 0.000
==== e(  22) =    23.39045 eV ==== 
     psi = 0.002*[#   2]+0.002*[#   6]
    |psi|^2 = 0.004
==== e(  23) =    25.34667 eV ==== 
 
    |psi|^2 = 0.000
==== e(  24) =    27.95520 eV ==== 
 
    |psi|^2 = 0.000
==== e(  25) =    28.27058 eV ==== 
 
    |psi|^2 = 0.000
==== e(  26) =    28.30965 eV ==== 
     psi = 0.002*[#   1]+0.002*[#   5]
    |psi|^2 = 0.005
==== e(  27) =    28.65600 eV ==== 
 
    |psi|^2 = 0.002
==== e(  28) =    29.82146 eV ==== 
 
    |psi|^2 = 0.000

 k =   0.0500000000  0.0000000000  0.0000000000
==== e(   1) =   -23.71828 eV ==== 
     psi = 0.484*[#   1]+0.484*[#   5]+0.008*[#   3]+0.008*[#   7]
    |psi|^2 = 0.984
==== e(   2) =   -11.80581 eV ==== 
     psi = 0.474*[#   2]+0.474*[#   6]
    |psi|^2 = 0.947
==== e(   3) =    -7.48177 eV ==== 
     psi = 0.489*[#   3]+0.489*[#   7]+0.005*[#   4]+0.005*[#   8]+0.005*[#   1]
          +0.005*[#   5]
    |psi|^2 = 0.997
==== e(   4) =    -7.39797 eV ==== 
     psi = 0.494*[#   4]+0.494*[#   8]+0.005*[#   3]+0.005*[#   7]
    |psi|^2 = 0.997
==== e(   5) =    -0.91011 eV ==== 
     psi = 0.003*[#   3]+0.003*[#   7]+0.003*[#   1]+0.003*[#   5]
    |psi|^2 = 0.012
==== e(   6) =    -0.02991 eV ==== 
     psi = 0.013*[#   2]+0.013*[#   6]
    |psi|^2 = 0.026
==== e(   7) =     1.66089 eV ==== 
     psi = 0.001*[#   1]+0.001*[#   5]
    |psi|^2 = 0.003
==== e(   8) =     2.58025 eV ==== 
     psi = 0.008*[#   2]+0.008*[#   6]
    |psi|^2 = 0.015
==== e(   9) =     4.09959 eV ==== 
     psi = 0.456*[#   3]+0.456*[#   7]+0.009*[#   1]+0.009*[#   5]+0.005*[#   4]
          +0.005*[#   8]
    |psi|^2 = 0.940
==== e(  10) =     4.26066 eV ==== 
     psi = 0.470*[#   4]+0.470*[#   8]+0.004*[#   3]+0.004*[#   7]
    |psi|^2 = 0.950
==== e(  11) =     5.17993 eV ==== 
     psi = 0.002*[#   3]+0.002*[#   7]
    |psi|^2 = 0.006
==== e(  12) =     6.86149 eV ==== 
     psi = 0.003*[#   2]+0.003*[#   6]
    |psi|^2 = 0.007
==== e(  13) =     7.00303 eV ==== 
     psi = 0.497*[#   2]+0.497*[#   6]
    |psi|^2 = 0.993
==== e(  14) =     8.30557 eV ==== 
     psi = 0.484*[#   1]+0.484*[#   5]+0.005*[#   3]+0.005*[#   7]
    |psi|^2 = 0.978
==== e(  15) =     9.74745 eV ==== 
 
    |psi|^2 = 0.002
==== e(  16) =    12.43097 eV ==== 
     psi = 0.001*[#   2]+0.001*[#   6]
    |psi|^2 = 0.003
==== e(  17) =    15.27947 eV ==== 
 
    |psi|^2 = 0.001
==== e(  18) =    18.37128 eV ==== 
 
    |psi|^2 = 0.002
==== e(  19) =    19.10722 eV ==== 
 
    |psi|^2 = 0.001
==== e(  20) =    22.04088 eV ==== 
 
    |psi|^2 = 0.000
==== e(  21) =    23.39637 eV ==== 
 
    |psi|^2 = 0.000
==== e(  22) =    23.60270 eV ==== 
     psi = 0.001*[#   2]+0.001*[#   6]
    |psi|^2 = 0.002
==== e(  23) =    25.43244 eV ==== 
 
    |psi|^2 = 0.000
==== e(  24) =    27.82409 eV ==== 
 
    |psi|^2 = 0.000
==== e(  25) =    27.89989 eV ==== 
 
    |psi|^2 = 0.000
==== e(  26) =    29.03635 eV ==== 
     psi = 0.001*[#   1]+0.001*[#   5]
    |psi|^2 = 0.004
==== e(  27) =    29.34441 eV ==== 
 
    |psi|^2 = 0.002
==== e(  28) =    30.26398 eV ==== 
 
    |psi|^2 = 0.000

 k =   0.0333333333  0.0000000000  0.0000000000
==== e(   1) =   -23.74286 eV ==== 
     psi = 0.488*[#   1]+0.488*[#   5]+0.004*[#   3]+0.004*[#   7]
    |psi|^2 = 0.984
==== e(   2) =   -11.83521 eV ==== 
     psi = 0.473*[#   2]+0.473*[#   6]
    |psi|^2 = 0.947
==== e(   3) =    -7.38209 eV ==== 
     psi = 0.494*[#   3]+0.494*[#   7]+0.002*[#   1]+0.002*[#   4]+0.002*[#   5]
          +0.002*[#   8]
    |psi|^2 = 0.997
==== e(   4) =    -7.34402 eV ==== 
     psi = 0.496*[#   4]+0.496*[#   8]+0.002*[#   3]+0.002*[#   7]
    |psi|^2 = 0.997
==== e(   5) =    -0.94345 eV ==== 
     psi = 0.003*[#   1]+0.003*[#   5]+0.001*[#   3]+0.001*[#   7]
    |psi|^2 = 0.009
==== e(   6) =    -0.06358 eV ==== 
     psi = 0.013*[#   2]+0.013*[#   6]
    |psi|^2 = 0.026
==== e(   7) =     1.62736 eV ==== 
     psi = 0.001*[#   1]+0.001*[#   5]
    |psi|^2 = 0.003
==== e(   8) =     2.54691 eV ==== 
     psi = 0.008*[#   2]+0.008*[#   6]
    |psi|^2 = 0.015
==== e(   9) =     4.08411 eV ==== 
     psi = 0.467*[#   3]+0.467*[#   7]+0.004*[#   1]+0.004*[#   5]+0.002*[#   4]
          +0.002*[#   8]
    |psi|^2 = 0.946
==== e(  10) =     4.15727 eV ==== 
     psi = 0.473*[#   4]+0.473*[#   8]+0.002*[#   3]+0.002*[#   7]
    |psi|^2 = 0.950
==== e(  11) =     5.14529 eV ==== 
     psi = 0.001*[#   3]+0.001*[#   7]
    |psi|^2 = 0.004
==== e(  12) =     6.82927 eV ==== 
     psi = 0.003*[#   2]+0.003*[#   6]
    |psi|^2 = 0.007
==== e(  13) =     7.08857 eV ==== 
     psi = 0.497*[#   2]+0.497*[#   6]
    |psi|^2 = 0.994
==== e(  14) =     8.26136 eV ==== 
     psi = 0.487*[#   1]+0.487*[#   5]+0.002*[#   3]+0.002*[#   7]
    |psi|^2 = 0.978
==== e(  15) =     9.71389 eV ==== 
 
    |psi|^2 = 0.001
==== e(  16) =    12.40167 eV ==== 
     psi = 0.001*[#   2]+0.001*[#   6]
    |psi|^2 = 0.003
==== e(  17) =    15.24636 eV ==== 
 
    |psi|^2 = 0.001
==== e(  18) =    18.29176 eV ==== 
 
    |psi|^2 = 0.002
==== e(  19) =    19.09525 eV ==== 
 
    |psi|^2 = 0.001
==== e(  20) =    22.00863 eV ==== 
 
    |psi|^2 = 0.000
==== e(  21) =    23.70803 eV ==== 
 
    |psi|^2 = 0.000
==== e(  22) =    23.78233 eV ==== 
 
    |psi|^2 = 0.001
==== e(  23) =    25.58750 eV ==== 
 
    |psi|^2 = 0.000
==== e(  24) =    27.60263 eV ==== 
 
    |psi|^2 = 0.000
==== e(  25) =    27.63387 eV ==== 
 
    |psi|^2 = 0.000
==== e(  26) =    29.76418 eV ==== 
 
    |psi|^2 = 0.003
==== e(  27) =    30.01309 eV ==== 
 
    |psi|^2 = 0.002
==== e(  28) =    30.23562 eV ==== 
 
    |psi|^2 = 0.000

 k =   0.0166666667  0.0000000000  0.0000000000
==== e(   1) =   -23.75760 eV ==== 
     psi = 0.491*[#   1]+0.491*[#   5]
    |psi|^2 = 0.984
==== e(   2) =   -11.85286 eV ==== 
     psi = 0.473*[#   2]+0.473*[#   6]
    |psi|^2 = 0.946
==== e(   3) =    -7.32111 eV ==== 
     psi = 0.498*[#   3]+0.498*[#   7]
    |psi|^2 = 0.997
==== e(   4) =    -7.31146 eV ==== 
     psi = 0.498*[#   4]+0.498*[#   8]
    |psi|^2 = 0.997
==== e(   5) =    -0.96345 eV ==== 
     psi = 0.003*[#   1]+0.003*[#   5]
    |psi|^2 = 0.008
==== e(   6) =    -0.08379 eV ==== 
     psi = 0.013*[#   2]+0.013*[#   6]
    |psi|^2 = 0.027
==== e(   7) =     1.60724 eV ==== 
     psi = 0.001*[#   1]+0.001*[#   5]
    |psi|^2 = 0.003
==== e(   8) =     2.52690 eV ==== 
     psi = 0.008*[#   2]+0.008*[#   6]
    |psi|^2 = 0.015
==== e(   9) =     4.07500 eV ==== 
     psi = 0.473*[#   3]+0.473*[#   7]+0.001*[#   1]+0.001*[#   5]
    |psi|^2 = 0.949
==== e(  10) =     4.09353 eV ==== 
     psi = 0.475*[#   4]+0.475*[#   8]
    |psi|^2 = 0.950
==== e(  11) =     5.12447 eV ==== 
     psi = 0.001*[#   1]+0.001*[#   5]
    |psi|^2 = 0.003
==== e(  12) =     6.80992 eV ==== 
     psi = 0.003*[#   2]+0.003*[#   6]
    |psi|^2 = 0.007
==== e(  13) =     7.14031 eV ==== 
     psi = 0.498*[#   2]+0.498*[#   6]
    |psi|^2 = 0.995
==== e(  14) =     8.23531 eV ==== 
     psi = 0.489*[#   1]+0.489*[#   5]
    |psi|^2 = 0.979
==== e(  15) =     9.69374 eV ==== 
 
    |psi|^2 = 0.001
==== e(  16) =    12.38403 eV ==== 
     psi = 0.001*[#   2]+0.001*[#   6]
    |psi|^2 = 0.003
==== e(  17) =    15.22646 eV ==== 
 
    |psi|^2 = 0.001
==== e(  18) =    18.24335 eV ==== 
 
    |psi|^2 = 0.001
==== e(  19) =    19.08713 eV ==== 
 
    |psi|^2 = 0.001
==== e(  20) =    21.98931 eV ==== 
 
    |psi|^2 = 0.000
==== e(  21) =    23.89186 eV ==== 
 
    |psi|^2 = 0.000
==== e(  22) =    23.90611 eV ==== 
 
    |psi|^2 = 0.000
==== e(  23) =    25.77239 eV ==== 
 
    |psi|^2 = 0.000
==== e(  24) =    27.40665 eV ==== 
 
    |psi|^2 = 0.000
==== e(  25) =    27.43355 eV ==== 
 
    |psi|^2 = 0.000
==== e(  26) =    30.05502 eV ==== 
 
    |psi|^2 = 0.000
==== e(  27) =    30.21429 eV ==== 
 
    |psi|^2 = 0.000
==== e(  28) =    30.46942 eV ==== 
 
    |psi|^2 = 0.002

 k =   0.0000000000  0.0000000000  0.0000000000
==== e(   1) =   -23.76252 eV ==== 
     psi = 0.492*[#   1]+0.492*[#   5]
    |psi|^2 = 0.984
==== e(   2) =   -11.85874 eV ==== 
     psi = 0.473*[#   2]+0.473*[#   6]
    |psi|^2 = 0.946
==== e(   3) =    -7.30058 eV ==== 
     psi = 0.468*[#   4]+0.468*[#   8]+0.031*[#   3]+0.031*[#   7]
    |psi|^2 = 0.997
==== e(   4) =    -7.30058 eV ==== 
     psi = 0.468*[#   3]+0.468*[#   7]+0.031*[#   4]+0.031*[#   8]
    |psi|^2 = 0.997
==== e(   5) =    -0.97012 eV ==== 
     psi = 0.004*[#   1]+0.004*[#   5]
    |psi|^2 = 0.007
==== e(   6) =    -0.09053 eV ==== 
     psi = 0.013*[#   2]+0.013*[#   6]
    |psi|^2 = 0.027
==== e(   7) =     1.60053 eV ==== 
     psi = 0.001*[#   1]+0.001*[#   5]
    |psi|^2 = 0.003
==== e(   8) =     2.52023 eV ==== 
     psi = 0.008*[#   2]+0.008*[#   6]
    |psi|^2 = 0.015
==== e(   9) =     4.07199 eV ==== 
     psi = 0.475*[#   4]+0.475*[#   8]
    |psi|^2 = 0.951
==== e(  10) =     4.07199 eV ==== 
     psi = 0.475*[#   3]+0.475*[#   7]
    |psi|^2 = 0.951
==== e(  11) =     5.11752 eV ==== 
     psi = 0.001*[#   1]+0.001*[#   5]
    |psi|^2 = 0.002
==== e(  12) =     6.80347 eV ==== 
     psi = 0.003*[#   2]+0.003*[#   6]
    |psi|^2 = 0.007
==== e(  13) =     7.15762 eV ==== 
     psi = 0.498*[#   2]+0.498*[#   6]
    |psi|^2 = 0.995
==== e(  14) =     8.22670 eV ==== 
     psi = 0.489*[#   1]+0.489*[#   5]
    |psi|^2 = 0.979
==== e(  15) =     9.68702 eV ==== 
 
    |psi|^2 = 0.001
==== e(  16) =    12.37814 eV ==== 
     psi = 0.001*[#   2]+0.001*[#   6]
    |psi|^2 = 0.003
==== e(  17) =    15.21982 eV ==== 
 
    |psi|^2 = 0.001
==== e(  18) =    18.22710 eV ==== 
 
    |psi|^2 = 0.001
==== e(  19) =    19.08428 eV ==== 
 
    |psi|^2 = 0.001
==== e(  20) =    21.98287 eV ==== 
 
    |psi|^2 = 0.000
==== e(  21) =    23.95080 eV ==== 
 
    |psi|^2 = 0.000
==== e(  22) =    23.95080 eV ==== 
 
    |psi|^2 = 0.000
==== e(  23) =    25.86517 eV ==== 
 
    |psi|^2 = 0.000
==== e(  24) =    27.33762 eV ==== 
 
    |psi|^2 = 0.000
==== e(  25) =    27.33762 eV ==== 
 
    |psi|^2 = 0.000
==== e(  26) =    29.97727 eV ==== 
 
    |psi|^2 = 0.000
==== e(  27) =    30.20878 eV ==== 
 
    |psi|^2 = 0.000
==== e(  28) =    30.93607 eV ==== 
 
    |psi|^2 = 0.000

Lowdin Charges: 

     Atom #   1: total charge =   3.9516, s =  0.9116, 
     Atom #   1: total charge =   3.9516, p =  3.0400, pz=  0.9809, px=  1.0643, py=  0.9949, 
     Atom #   2: total charge =   3.9516, s =  0.9116, 
     Atom #   2: total charge =   3.9516, p =  3.0400, pz=  0.9809, px=  1.0643, py=  0.9949, 
     Spilling Parameter:   0.0121
 
     PROJWFC      :      3.23s CPU      9.83s WALL

 
   This run was terminated on:  22:50:49  24Jun2022            

=------------------------------------------------------------------------------=
   JOB DONE.
=------------------------------------------------------------------------------=
